ITEM: TIMESTEP
32
ITEM: NUMBER OF ATOMS
8001
ITEM: BOX BOUNDS pp pp pp
0.0000000000000000e+00 6.4371799999999993e+01
0.0000000000000000e+00 6.4371799999999993e+01
0.0000000000000000e+00 6.4371799999999993e+01
ITEM: ATOMS id mass x y z c_peratom 
2 207.2 3.21873 4.92526e-05 5.09333e-05 -81.4878 
3 207.2 4.92526e-05 3.21873 5.09333e-05 -81.4878 
4 207.2 4.92731e-05 4.92731e-05 3.21873 -81.4875 
8 207.2 3.21874 3.21874 3.21874 -81.5053 
11 207.2 6.4374 3.21874 5.5182e-05 -81.5129 
12 207.2 6.4374 5.33458e-05 3.21874 -81.5126 
15 127.6 6.43694 3.21843 3.21843 -82.7427 
82 207.2 3.21874 6.4374 5.5182e-05 -81.5129 
84 207.2 5.33458e-05 6.4374 3.21874 -81.5126 
86 127.6 3.21843 6.43694 3.21843 -82.7427 
92 207.2 6.43744 6.43744 3.21877 -81.5415 
802 207.2 3.21874 5.3377e-05 6.43741 -81.5124 
803 207.2 5.3377e-05 3.21874 6.43741 -81.5124 
805 127.6 3.21843 3.21843 6.43694 -82.743 
811 207.2 6.43744 3.21877 6.43744 -81.5412 
882 207.2 3.21877 6.43744 6.43744 -81.5412 
889 127.6 6.4369 6.4369 6.4369 -82.7032 
10 207.2 9.65604 5.67757e-05 5.89956e-05 -81.525 
16 207.2 9.65607 3.21877 3.21877 -81.5464 
19 207.2 12.8747 3.21878 7.13991e-05 -81.5623 
20 207.2 12.8747 6.9157e-05 3.21879 -81.5618 
23 127.6 12.874 3.21839 3.21838 -82.6908 
90 207.2 9.65608 6.43745 6.97097e-05 -81.5555 
94 127.6 9.65544 6.43689 3.21839 -82.6977 
100 207.2 12.8747 6.4375 3.21882 -81.5985 
810 207.2 9.65608 6.76513e-05 6.43745 -81.5548 
813 127.6 9.65544 3.21839 6.43689 -82.698 
819 207.2 12.8747 3.21882 6.43751 -81.5981 
890 207.2 9.65613 6.4375 6.4375 -81.591 
897 127.6 12.8739 6.43681 6.43681 -82.6399 
102 127.6 16.0926 6.43682 3.21832 -82.6341 
821 127.6 16.0926 3.21833 6.43681 -82.6345 
18 207.2 16.0933 7.08927e-05 7.3402e-05 -81.5774 
24 207.2 16.0933 3.21882 3.21882 -81.6043 
26 207.2 22.5304 8.56029e-05 8.82628e-05 -81.6249 
27 207.2 19.3118 3.21882 8.85033e-05 -81.6175 
28 207.2 19.3118 8.49433e-05 3.21883 -81.617 
31 127.6 19.3112 3.21834 3.21833 -82.6325 
32 207.2 22.5304 3.21886 3.21886 -81.6573 
98 207.2 16.0933 6.43752 8.82717e-05 -81.6154 
106 207.2 22.5304 6.43757 0.000106535 -81.6705 
108 207.2 19.3119 6.43759 3.21889 -81.6628 
110 127.6 22.5299 6.43673 3.21825 -82.5754 
818 207.2 16.0933 8.53764e-05 6.43752 -81.6145 
826 207.2 22.5304 0.000105144 6.43758 -81.6693 
827 207.2 19.3119 3.21889 6.43759 -81.6623 
829 127.6 22.5299 3.21826 6.43672 -82.576 
898 207.2 16.0934 6.43761 6.43761 -81.6623 
905 127.6 19.3112 6.43671 6.4367 -82.5674 
906 207.2 22.5305 6.43771 6.4377 -81.7284 
34 207.2 28.9674 9.08369e-05 0.000105003 -81.6488 
35 207.2 25.7489 3.21886 0.000103498 -81.6575 
36 207.2 25.7489 9.43725e-05 3.21886 -81.6568 
39 127.6 25.7486 3.21831 3.2183 -82.5899 
40 207.2 28.9674 3.21887 3.21889 -81.6845 
114 207.2 28.9674 6.43759 9.73304e-05 -81.6985 
116 207.2 25.7489 6.43769 3.21899 -81.7092 
118 127.6 28.9672 6.43659 3.21813 -82.5455 
834 207.2 28.9674 0.000129339 6.43759 -81.6973 
835 207.2 25.7489 3.21897 6.43768 -81.7086 
837 127.6 28.9672 3.21815 6.43662 -82.5461 
913 127.6 25.7485 6.43666 6.43666 -82.5138 
914 207.2 28.9673 6.43753 6.43758 -81.7634 
43 207.2 32.1859 3.2188 6.48723e-05 -81.6665 
44 207.2 32.1859 8.84221e-05 3.2188 -81.6658 
124 207.2 32.1858 6.43751 3.21884 -81.7196 
843 207.2 32.1858 3.21882 6.43754 -81.719 
42 207.2 35.4044 9.13475e-05 0.000106359 -81.6399 
47 127.6 32.186 3.2182 3.21819 -82.581 
48 207.2 35.4043 3.21886 3.21888 -81.6748 
51 207.2 38.6228 3.21885 0.000101667 -81.64 
52 207.2 38.6228 9.19278e-05 3.21885 -81.6392 
55 127.6 38.6233 3.21833 3.21832 -82.6083 
122 207.2 35.4043 6.43758 9.39263e-05 -81.6884 
126 127.6 35.4047 6.4366 3.21814 -82.5563 
132 207.2 38.6228 6.43767 3.21898 -81.6889 
842 207.2 35.4043 0.000125231 6.43758 -81.6872 
845 127.6 35.4047 3.21815 6.43663 -82.5569 
851 207.2 38.6228 3.21896 6.43767 -81.6882 
921 127.6 32.186 6.43632 6.43636 -82.502 
922 207.2 35.4043 6.43751 6.43756 -81.7514 
929 127.6 38.6234 6.43669 6.43669 -82.5365 
50 207.2 41.8414 7.86968e-05 8.13979e-05 -81.602 
56 207.2 41.8414 3.21884 3.21885 -81.6322 
59 207.2 45.0599 3.2188 8.67475e-05 -81.5894 
60 207.2 45.0599 8.26637e-05 3.21881 -81.5888 
63 127.6 45.0606 3.21836 3.21835 -82.6619 
130 207.2 41.8413 6.43755 0.000102688 -81.6444 
134 127.6 41.842 6.43677 3.21828 -82.6031 
140 207.2 45.0599 6.43755 3.21887 -81.6305 
850 207.2 41.8413 0.000102812 6.43755 -81.6431 
853 127.6 41.842 3.21829 6.43676 -82.6038 
859 207.2 45.0599 3.21886 6.43755 -81.63 
930 207.2 41.8413 6.43768 6.43768 -81.6971 
937 127.6 45.0607 6.43675 6.43675 -82.6036 
58 207.2 48.2785 6.50716e-05 6.76271e-05 -81.5494 
64 207.2 48.2785 3.2188 3.2188 -81.5735 
138 207.2 48.2785 6.43748 8.28155e-05 -81.5834 
858 207.2 48.2785 7.98268e-05 6.43749 -81.5824 
938 207.2 48.2784 6.43756 6.43757 -81.6248 
66 207.2 54.7158 5.2988e-05 5.51604e-05 -81.5026 
67 207.2 51.4972 3.21876 6.43379e-05 -81.5345 
68 207.2 51.4972 6.22359e-05 3.21876 -81.5341 
71 127.6 51.4977 3.21841 3.2184 -82.72 
72 207.2 54.7158 3.21875 3.21876 -81.5217 
142 127.6 48.2792 6.43685 3.21835 -82.6678 
146 207.2 54.7158 6.43742 6.52684e-05 -81.5299 
148 207.2 51.4971 6.43747 3.2188 -81.5667 
150 127.6 54.7163 6.43692 3.21841 -82.7246 
861 127.6 48.2792 3.21835 6.43685 -82.6682 
866 207.2 54.7158 6.33608e-05 6.43743 -81.5292 
867 207.2 51.4971 3.2188 6.43747 -81.5663 
869 127.6 54.7163 3.21841 6.43692 -82.725 
945 127.6 51.4978 6.43686 6.43685 -82.6751 
946 207.2 54.7157 6.43747 6.43747 -81.5613 
7 127.6 64.3717 3.21845 3.21845 -82.7691 
881 127.6 64.3717 6.43694 6.43693 -82.7351 
74 207.2 61.1532 4.38523e-05 4.57598e-05 -81.4792 
75 207.2 57.9345 3.21873 5.35948e-05 -81.4959 
76 207.2 57.9345 5.1772e-05 3.21874 -81.4956 
79 127.6 57.9348 3.21844 3.21844 -82.7605 
80 207.2 61.1532 3.21873 3.21874 -81.496 
154 207.2 61.1532 6.43739 5.47502e-05 -81.5033 
156 207.2 57.9345 6.43741 3.21876 -81.522 
158 127.6 61.1533 6.43696 3.21843 -82.7529 
874 207.2 61.1532 5.30821e-05 6.4374 -81.5027 
875 207.2 57.9345 3.21875 6.43742 -81.5218 
877 127.6 61.1533 3.21843 6.43695 -82.7531 
953 127.6 57.9348 6.43692 6.43692 -82.7246 
954 207.2 61.1531 6.43742 6.43743 -81.53 
83 207.2 5.67757e-05 9.65604 5.89956e-05 -81.525 
88 207.2 3.21877 9.65607 3.21877 -81.5464 
91 207.2 6.43745 9.65608 6.97097e-05 -81.5555 
95 127.6 6.43689 9.65544 3.21839 -82.6977 
162 207.2 3.21878 12.8747 7.13991e-05 -81.5623 
164 207.2 6.9157e-05 12.8747 3.21879 -81.5618 
166 127.6 3.21839 12.874 3.21838 -82.6908 
172 207.2 6.4375 12.8747 3.21882 -81.5985 
883 207.2 6.76513e-05 9.65608 6.43745 -81.5548 
885 127.6 3.21839 9.65544 6.43689 -82.698 
891 207.2 6.4375 9.65613 6.4375 -81.591 
962 207.2 3.21882 12.8747 6.43751 -81.5981 
969 127.6 6.43681 12.8739 6.43681 -82.6399 
175 127.6 6.43682 16.0926 3.21832 -82.6341 
965 127.6 3.21833 16.0926 6.43681 -82.6345 
96 207.2 9.65614 9.65614 3.21883 -81.5969 
99 207.2 12.8747 9.65615 9.0577e-05 -81.6154 
103 127.6 12.8739 9.65535 3.21832 -82.6336 
170 207.2 9.65615 12.8747 9.0577e-05 -81.6154 
174 127.6 9.65535 12.8739 3.21832 -82.6336 
180 207.2 12.8748 12.8748 3.21892 -81.6716 
893 127.6 9.65536 9.65536 6.43681 -82.6411 
899 207.2 12.8748 9.65625 6.43762 -81.664 
970 207.2 9.65625 12.8748 6.43762 -81.664 
977 127.6 12.8738 12.8738 6.43667 -82.5553 
182 127.6 16.0925 12.8738 3.21822 -82.5511 
901 127.6 16.0925 9.65523 6.43668 -82.5587 
183 127.6 12.8738 16.0925 3.21822 -82.5511 
973 127.6 9.65523 16.0925 6.43668 -82.5587 
981 127.6 16.0923 16.0923 6.4364 -82.4485 
104 207.2 16.0934 9.65625 3.21891 -81.6689 
107 207.2 19.3119 9.65625 0.000120445 -81.6831 
111 127.6 19.3112 9.65524 3.21823 -82.5605 
112 207.2 22.5305 9.65635 3.21901 -81.7354 
178 207.2 16.0934 12.8749 0.000129402 -81.691 
186 207.2 22.5305 12.875 0.000193422 -81.7602 
188 207.2 19.312 12.875 3.21904 -81.755 
190 127.6 22.5297 12.8737 3.21814 -82.4744 
907 207.2 19.312 9.6564 6.43776 -81.7477 
909 127.6 22.5297 9.65509 6.43655 -82.4809 
978 207.2 16.0935 12.875 6.43782 -81.7591 
985 127.6 19.311 12.8736 6.43643 -82.457 
986 207.2 22.5305 12.8752 6.43804 -81.8514 
191 127.6 19.311 16.0923 3.21806 -82.4568 
989 127.6 22.5294 16.092 6.43619 -82.3402 
115 207.2 25.7489 9.65634 0.000178437 -81.7315 
119 127.6 25.7485 9.65517 3.2182 -82.5067 
120 207.2 28.9673 9.65616 3.21881 -81.7704 
194 207.2 28.9673 12.8747 2.56398e-05 -81.7963 
196 207.2 25.7489 12.875 3.21906 -81.8167 
198 127.6 28.9672 12.8732 3.21761 -82.4339 
915 207.2 25.7489 9.65647 6.4379 -81.811 
917 127.6 28.9672 9.65453 6.43605 -82.4396 
993 127.6 25.7483 12.8732 6.43616 -82.3811 
994 207.2 28.9673 12.8744 6.4374 -81.9016 
123 207.2 32.1858 9.65614 0.000110823 -81.7426 
204 207.2 32.1858 12.8745 3.21868 -81.8319 
923 207.2 32.1858 9.656 6.43748 -81.8263 
199 127.6 25.7483 16.0919 3.21765 -82.3845 
200 207.2 28.9673 16.0929 3.21851 -81.8966 
997 127.6 28.967 16.0906 6.43478 -82.2838 
1003 207.2 32.1858 16.0923 6.43686 -81.9814 
127 127.6 32.186 9.65485 3.21793 -82.4949 
128 207.2 35.4043 9.65615 3.2188 -81.7584 
131 207.2 38.6228 9.65633 0.000179632 -81.71 
135 127.6 38.6234 9.65521 3.21823 -82.5296 
202 207.2 35.4043 12.8747 2.18364e-05 -81.7836 
206 127.6 35.4048 12.8732 3.21764 -82.4474 
212 207.2 38.6228 12.8749 3.21902 -81.7911 
925 127.6 35.4048 9.65457 6.43608 -82.4536 
931 207.2 38.6228 9.6564 6.43783 -81.7849 
1001 127.6 32.186 12.8725 6.43539 -82.3643 
1002 207.2 35.4043 12.8745 6.43742 -81.8841 
1009 127.6 38.6237 12.8732 6.43613 -82.4135 
207 127.6 32.186 16.0913 3.21699 -82.3684 
215 127.6 38.6237 16.092 3.21767 -82.4147 
1005 127.6 35.405 16.0908 6.43488 -82.3025 
136 207.2 41.8413 9.65632 3.21899 -81.7039 
139 207.2 45.0599 9.65621 0.000113411 -81.6489 
143 127.6 45.0607 9.65529 3.21826 -82.5971 
210 207.2 41.8413 12.8749 0.000192724 -81.7269 
214 127.6 41.8421 12.8738 3.2182 -82.5097 
220 207.2 45.0598 12.8749 3.219 -81.7134 
933 127.6 41.8421 9.65518 6.43663 -82.5164 
939 207.2 45.0598 9.65634 6.4377 -81.7062 
1010 207.2 41.8412 12.8751 6.43799 -81.8087 
1017 127.6 45.0608 12.8737 6.43654 -82.5055 
144 207.2 48.2784 9.6562 3.21888 -81.631 
218 207.2 48.2784 12.8748 0.000120514 -81.6508 
1018 207.2 48.2783 12.8749 6.43774 -81.7088 
223 127.6 45.0608 16.0924 3.21814 -82.5039 
1013 127.6 41.8425 16.092 6.43624 -82.3897 
147 207.2 51.4971 9.65612 8.77319e-05 -81.5817 
151 127.6 51.4978 9.6554 3.21835 -82.6693 
152 207.2 54.7157 9.6561 3.2188 -81.5668 
222 127.6 48.2793 12.8739 3.21827 -82.5944 
226 207.2 54.7157 12.8747 8.29341e-05 -81.5835 
228 207.2 51.497 12.8748 3.21887 -81.6309 
230 127.6 54.7164 12.874 3.21835 -82.6678 
941 127.6 48.2793 9.6553 6.43674 -82.6019 
947 207.2 51.497 9.65619 6.43757 -81.6236 
949 127.6 54.7164 9.6554 6.43685 -82.675 
1025 127.6 51.4979 12.8739 6.43674 -82.6022 
1026 207.2 54.7156 12.8748 6.43756 -81.6249 
231 127.6 51.4979 16.0925 3.21827 -82.5972 
1021 127.6 48.2795 16.0924 6.43653 -82.5067 
1029 127.6 54.7164 16.0925 6.43676 -82.6038 
87 127.6 64.3717 9.65548 3.21841 -82.7301 
961 127.6 64.3717 12.874 6.43687 -82.6815 
155 207.2 57.9344 9.65606 6.42815e-05 -81.5349 
159 127.6 57.9348 9.65547 3.2184 -82.7195 
160 207.2 61.1531 9.65606 3.21876 -81.535 
234 207.2 61.1531 12.8747 6.71237e-05 -81.5503 
236 207.2 57.9344 12.8747 3.2188 -81.5739 
238 127.6 61.1533 12.874 3.2184 -82.7036 
955 207.2 57.9344 9.6561 6.43747 -81.5668 
957 127.6 61.1533 9.65546 6.43691 -82.7107 
1033 127.6 57.9349 12.874 6.43685 -82.6678 
1034 207.2 61.1531 12.8747 6.43749 -81.5835 
167 127.6 64.3717 16.0926 3.21837 -82.6753 
239 127.6 57.9349 16.0926 3.21835 -82.6617 
1037 127.6 61.1533 16.0926 6.43683 -82.6511 
163 207.2 7.08927e-05 16.0933 7.3402e-05 -81.5774 
168 207.2 3.21882 16.0933 3.21882 -81.6043 
171 207.2 6.43752 16.0933 8.82717e-05 -81.6154 
242 207.2 3.21882 19.3118 8.85033e-05 -81.6175 
243 207.2 8.56029e-05 22.5304 8.82628e-05 -81.6249 
244 207.2 8.49433e-05 19.3118 3.21883 -81.617 
246 127.6 3.21834 19.3112 3.21833 -82.6325 
248 207.2 3.21886 22.5304 3.21886 -81.6573 
251 207.2 6.43757 22.5304 0.000106535 -81.6705 
252 207.2 6.43759 19.3119 3.21889 -81.6628 
255 127.6 6.43673 22.5299 3.21825 -82.5754 
963 207.2 8.53764e-05 16.0933 6.43752 -81.6145 
971 207.2 6.43761 16.0934 6.43761 -81.6623 
1042 207.2 3.21889 19.3119 6.43759 -81.6623 
1043 207.2 0.000105144 22.5304 6.43758 -81.6693 
1045 127.6 3.21826 22.5299 6.43672 -82.576 
1049 127.6 6.43671 19.3112 6.4367 -82.5674 
1051 207.2 6.43771 22.5305 6.4377 -81.7284 
176 207.2 9.65625 16.0934 3.21891 -81.6689 
179 207.2 12.8749 16.0934 0.000129402 -81.691 
250 207.2 9.65625 19.3119 0.000120445 -81.6831 
254 127.6 9.65524 19.3112 3.21823 -82.5605 
256 207.2 9.65635 22.5305 3.21901 -81.7354 
259 207.2 12.875 22.5305 0.000193422 -81.7602 
260 207.2 12.875 19.312 3.21904 -81.755 
263 127.6 12.8737 22.5297 3.21814 -82.4744 
979 207.2 12.875 16.0935 6.43782 -81.7591 
1050 207.2 9.6564 19.312 6.43776 -81.7477 
1053 127.6 9.65509 22.5297 6.43655 -82.4809 
1057 127.6 12.8736 19.311 6.43643 -82.457 
1059 207.2 12.8752 22.5305 6.43804 -81.8514 
262 127.6 16.0923 19.311 3.21806 -82.4568 
1061 127.6 16.092 22.5294 6.43619 -82.3402 
184 207.2 16.0935 16.0935 3.21906 -81.7619 
187 207.2 19.312 16.0935 0.000187886 -81.7766 
192 207.2 22.5304 16.0936 3.21921 -81.849 
258 207.2 16.0935 19.312 0.000187886 -81.7766 
264 207.2 16.0936 22.5304 3.21921 -81.849 
266 207.2 22.5304 19.312 0.000176108 -81.8623 
267 207.2 19.312 22.5304 0.000176108 -81.8623 
268 207.2 19.312 19.312 3.21922 -81.8609 
270 127.6 22.5295 19.3107 3.21776 -82.3575 
271 127.6 19.3107 22.5295 3.21776 -82.3575 
272 207.2 22.5302 22.5302 3.21888 -81.9525 
987 207.2 19.3121 16.0937 6.43804 -81.8749 
1058 207.2 16.0937 19.3121 6.43804 -81.8749 
1065 127.6 19.3107 19.3107 6.43615 -82.3264 
1066 207.2 22.5304 19.312 6.43834 -81.9913 
1067 207.2 19.312 22.5304 6.43834 -81.9913 
1069 127.6 22.5287 22.5287 6.43483 -82.2118 
195 207.2 25.7489 16.0934 9.21323e-05 -81.838 
276 207.2 25.7487 19.3116 3.21867 -81.9387 
278 127.6 28.967 19.3096 3.21629 -82.3078 
279 127.6 25.7478 22.5286 3.21595 -82.2765 
280 207.2 28.9671 22.5292 3.21675 -82.005 
995 207.2 25.7488 16.0932 6.43787 -81.9612 
1073 127.6 25.7479 19.3094 6.43467 -82.2313 
1074 207.2 28.9672 19.3106 6.43643 -82.0538 
1075 207.2 25.7484 22.5293 6.436 -82.0954 
1077 127.6 28.9666 22.5271 6.43091 -82.1431 
284 207.2 32.1858 19.3109 3.21775 -81.9568 
1083 207.2 32.1857 22.5283 6.43323 -82.1249 
208 207.2 35.4044 16.093 3.21852 -81.8806 
211 207.2 38.6228 16.0934 7.08636e-05 -81.8112 
286 127.6 35.405 19.3097 3.21639 -82.3248 
287 127.6 32.186 22.5278 3.21441 -82.26 
288 207.2 35.4045 22.5293 3.21682 -81.9877 
292 207.2 38.6229 19.3116 3.21861 -81.9058 
295 127.6 38.6241 22.5287 3.21611 -82.311 
1011 207.2 38.6228 16.0932 6.43769 -81.9255 
1081 127.6 32.1861 19.3083 6.43287 -82.2096 
1082 207.2 35.4044 19.3107 6.43643 -82.0339 
1085 127.6 35.4055 22.5274 6.43113 -82.1625 
1089 127.6 38.6241 19.3096 6.43477 -82.2688 
1091 207.2 38.6231 22.5293 6.43589 -82.0571 
216 207.2 41.8413 16.0935 3.21916 -81.8086 
219 207.2 45.0597 16.0935 0.000179133 -81.7333 
290 207.2 41.8413 19.312 0.000156894 -81.8212 
294 127.6 41.8425 19.3108 3.21781 -82.4031 
296 207.2 41.8414 22.5302 3.21876 -81.9036 
299 207.2 45.0598 22.5304 0.000145035 -81.8103 
300 207.2 45.0597 19.312 3.21914 -81.808 
303 127.6 45.0611 22.5295 3.21785 -82.4155 
1019 207.2 45.0597 16.0936 6.43794 -81.8178 
1090 207.2 41.8413 19.3119 6.43806 -81.9387 
1093 127.6 41.8431 22.5288 6.43497 -82.2684 
1097 127.6 45.0612 19.3108 6.43627 -82.3902 
1099 207.2 45.0598 22.5303 6.43807 -81.9216 
224 207.2 48.2783 16.0935 3.21901 -81.7128 
298 207.2 48.2783 19.312 0.000171862 -81.7267 
304 207.2 48.2782 22.5304 3.21912 -81.7889 
1098 207.2 48.2782 19.312 6.4379 -81.808 
227 207.2 51.497 16.0933 0.000113765 -81.6486 
232 207.2 54.7157 16.0933 3.21887 -81.6303 
302 127.6 48.2795 19.3111 3.21815 -82.5115 
306 207.2 54.7157 19.3119 0.000106972 -81.6438 
307 207.2 51.4969 22.5304 0.000171473 -81.7093 
308 207.2 51.4969 19.3119 3.21897 -81.7034 
310 127.6 54.7164 19.3112 3.21828 -82.6038 
311 127.6 51.498 22.5298 3.21824 -82.5305 
312 207.2 54.7156 22.5304 3.21895 -81.688 
1027 207.2 51.4969 16.0935 6.43773 -81.7048 
1101 127.6 48.2798 22.5295 6.43636 -82.415 
1105 127.6 51.4981 19.3111 6.43656 -82.5189 
1106 207.2 54.7155 19.3119 6.43766 -81.6966 
1107 207.2 51.4967 22.5304 6.43792 -81.7817 
1109 127.6 54.7165 22.5298 6.43669 -82.5375 
247 127.6 64.3717 22.5299 3.21833 -82.6253 
1041 127.6 64.3717 19.3112 6.4368 -82.6214 
235 207.2 57.9344 16.0933 8.57796e-05 -81.5897 
240 207.2 61.1531 16.0933 3.21881 -81.5898 
314 207.2 61.1531 19.3118 8.17699e-05 -81.6027 
315 207.2 57.9344 22.5304 9.19551e-05 -81.64 
316 207.2 57.9344 19.3118 3.21885 -81.632 
318 127.6 61.1533 19.3112 3.21835 -82.6486 
319 127.6 57.9349 22.5299 3.2183 -82.6092 
320 207.2 61.1531 22.5304 3.21884 -81.6399 
1035 207.2 57.9343 16.0933 6.43755 -81.6302 
1113 127.6 57.9349 19.3112 6.43676 -82.6039 
1114 207.2 61.1531 19.3119 6.43756 -81.6437 
1115 207.2 57.9343 22.5304 6.43764 -81.6879 
1117 127.6 61.1533 22.5299 6.43676 -82.5967 
322 207.2 3.21886 25.7489 0.000103498 -81.6575 
323 207.2 9.08369e-05 28.9674 0.000105003 -81.6488 
324 207.2 9.43725e-05 25.7489 3.21886 -81.6568 
326 127.6 3.21831 25.7486 3.2183 -82.5899 
328 207.2 3.21887 28.9674 3.21889 -81.6845 
331 207.2 6.43759 28.9674 9.73304e-05 -81.6985 
332 207.2 6.43769 25.7489 3.21899 -81.7092 
335 127.6 6.43659 28.9672 3.21813 -82.5455 
1122 207.2 3.21897 25.7489 6.43768 -81.7086 
1123 207.2 0.000129339 28.9674 6.43759 -81.6973 
1125 127.6 3.21815 28.9672 6.43662 -82.5461 
1129 127.6 6.43666 25.7485 6.43666 -82.5138 
1131 207.2 6.43753 28.9673 6.43758 -81.7634 
402 207.2 3.2188 32.1859 6.48723e-05 -81.6665 
404 207.2 8.84221e-05 32.1859 3.2188 -81.6658 
412 207.2 6.43751 32.1858 3.21884 -81.7196 
1202 207.2 3.21882 32.1858 6.43754 -81.719 
330 207.2 9.65634 25.7489 0.000178437 -81.7315 
334 127.6 9.65517 25.7485 3.2182 -82.5067 
336 207.2 9.65616 28.9673 3.21881 -81.7704 
339 207.2 12.8747 28.9673 2.56398e-05 -81.7963 
340 207.2 12.875 25.7489 3.21906 -81.8167 
343 127.6 12.8732 28.9672 3.21761 -82.4339 
1130 207.2 9.65647 25.7489 6.4379 -81.811 
1133 127.6 9.65453 28.9672 6.43605 -82.4396 
1137 127.6 12.8732 25.7483 6.43616 -82.3811 
1139 207.2 12.8744 28.9673 6.4374 -81.9016 
342 127.6 16.0919 25.7483 3.21765 -82.3845 
344 207.2 16.0929 28.9673 3.21851 -81.8966 
1141 127.6 16.0906 28.967 6.43478 -82.2838 
410 207.2 9.65614 32.1858 0.000110823 -81.7426 
420 207.2 12.8745 32.1858 3.21868 -81.8319 
1210 207.2 9.656 32.1858 6.43748 -81.8263 
1218 207.2 16.0923 32.1858 6.43686 -81.9814 
338 207.2 16.0934 25.7489 9.21323e-05 -81.838 
348 207.2 19.3116 25.7487 3.21867 -81.9387 
350 127.6 22.5286 25.7478 3.21595 -82.2765 
351 127.6 19.3096 28.967 3.21629 -82.3078 
352 207.2 22.5292 28.9671 3.21675 -82.005 
1138 207.2 16.0932 25.7488 6.43787 -81.9612 
1145 127.6 19.3094 25.7479 6.43467 -82.2313 
1146 207.2 22.5293 25.7484 6.436 -82.0954 
1147 207.2 19.3106 28.9672 6.43643 -82.0538 
1149 127.6 22.5271 28.9666 6.43091 -82.1431 
428 207.2 19.3109 32.1858 3.21775 -81.9568 
1226 207.2 22.5283 32.1857 6.43323 -82.1249 
356 207.2 25.7481 25.7481 3.21624 -82.0218 
358 127.6 28.9665 25.7468 3.21246 -82.2255 
359 127.6 25.7468 28.9665 3.21246 -82.2255 
360 207.2 28.9665 28.9665 3.2126 -82.0642 
1153 127.6 25.7467 25.7467 6.42982 -82.1162 
1154 207.2 28.9664 25.7471 6.43024 -82.1801 
1155 207.2 25.7471 28.9664 6.43024 -82.1801 
1157 127.6 28.966 28.966 6.42319 -82.0569 
364 207.2 32.1858 25.7476 3.21411 -82.0442 
1163 207.2 32.1858 28.9663 6.4257 -82.2171 
436 207.2 25.7476 32.1858 3.21411 -82.0442 
1234 207.2 28.9663 32.1858 6.4257 -82.2171 
366 127.6 35.4055 25.7469 3.21279 -82.2427 
367 127.6 32.1861 28.9664 3.20995 -82.2051 
368 207.2 35.4051 28.9666 3.21286 -82.0462 
372 207.2 38.6235 25.7481 3.21626 -81.9872 
375 127.6 38.6252 28.9666 3.21296 -82.2617 
1161 127.6 32.186 25.7462 6.42578 -82.0862 
1162 207.2 35.4049 25.7474 6.43062 -82.156 
1165 127.6 35.4063 28.9663 6.42397 -82.0812 
1169 127.6 38.6252 25.747 6.43009 -82.159 
1171 207.2 38.6244 28.9667 6.4307 -82.1336 
452 207.2 38.6241 32.1859 3.21448 -82.0053 
374 127.6 41.8433 25.7479 3.21611 -82.3288 
376 207.2 41.8425 28.9671 3.21675 -81.9517 
380 207.2 45.0601 25.7487 3.21853 -81.8771 
383 127.6 45.0622 28.967 3.21644 -82.3725 
1170 207.2 41.8423 25.7484 6.43563 -82.0374 
1173 127.6 41.8448 28.9668 6.43126 -82.2053 
1177 127.6 45.0624 25.748 6.43476 -82.3074 
1179 207.2 45.0612 28.9672 6.43604 -81.9739 
378 207.2 48.2783 25.7488 5.1145e-05 -81.781 
1178 207.2 48.2787 25.7487 6.43752 -81.88 
460 207.2 45.0608 32.1858 3.21785 -81.8914 
1250 207.2 41.8432 32.1858 6.43358 -82.0596 
382 127.6 48.2799 25.7483 3.21774 -82.4491 
384 207.2 48.2789 28.9673 3.21833 -81.8297 
386 207.2 54.7156 25.7489 0.000165007 -81.6862 
388 207.2 51.4969 25.7488 3.21896 -81.7567 
390 127.6 54.7165 25.7485 3.21828 -82.557 
391 127.6 51.4986 28.9672 3.21766 -82.4967 
392 207.2 54.7158 28.9673 3.21868 -81.7184 
1181 127.6 48.2812 28.9671 6.43489 -82.37 
1185 127.6 51.4985 25.7483 6.43622 -82.4572 
1186 207.2 54.7155 25.7488 6.43772 -81.7496 
1187 207.2 51.4976 28.9673 6.43715 -81.8221 
1189 127.6 54.7172 28.9672 6.43614 -82.5044 
466 207.2 54.7158 32.1858 0.000120816 -81.6957 
468 207.2 51.4972 32.1858 3.21871 -81.7682 
1258 207.2 48.2793 32.1858 6.43695 -81.8937 
1266 207.2 54.7158 32.1858 6.4375 -81.7605 
327 127.6 64.3717 28.9672 3.21831 -82.5994 
1121 127.6 64.3717 25.7485 6.43676 -82.5773 
394 207.2 61.1531 25.7489 0.000101545 -81.6406 
395 207.2 57.9344 28.9673 6.08783e-05 -81.6652 
396 207.2 57.9343 25.7489 3.21895 -81.673 
398 127.6 61.1533 25.7486 3.21833 -82.6084 
399 127.6 57.9351 28.9672 3.21815 -82.5832 
400 207.2 61.1531 28.9673 3.21884 -81.6653 
1193 127.6 57.9349 25.7485 6.43673 -82.5572 
1194 207.2 61.153 25.7489 6.43763 -81.6862 
1195 207.2 57.9345 28.9673 6.43744 -81.7183 
1197 127.6 61.1534 28.9672 6.43665 -82.5696 
474 207.2 61.1532 32.1859 6.61745e-05 -81.6491 
476 207.2 57.9344 32.1858 3.21884 -81.6816 
1274 207.2 61.1531 32.1858 6.43754 -81.6954 
403 207.2 9.13475e-05 35.4044 0.000106359 -81.6399 
406 127.6 3.2182 32.186 3.21819 -82.581 
408 207.2 3.21886 35.4043 3.21888 -81.6748 
411 207.2 6.43758 35.4043 9.39263e-05 -81.6884 
415 127.6 6.4366 35.4047 3.21814 -82.5563 
482 207.2 3.21885 38.6228 0.000101667 -81.64 
484 207.2 9.19278e-05 38.6228 3.21885 -81.6392 
486 127.6 3.21833 38.6233 3.21832 -82.6083 
492 207.2 6.43767 38.6228 3.21898 -81.6889 
1203 207.2 0.000125231 35.4043 6.43758 -81.6872 
1205 127.6 3.21815 35.4047 6.43663 -82.5569 
1209 127.6 6.43632 32.186 6.43636 -82.502 
1211 207.2 6.43751 35.4043 6.43756 -81.7514 
1282 207.2 3.21896 38.6228 6.43767 -81.6882 
1289 127.6 6.43669 38.6234 6.43669 -82.5365 
414 127.6 9.65485 32.186 3.21793 -82.4949 
416 207.2 9.65615 35.4043 3.2188 -81.7584 
419 207.2 12.8747 35.4043 2.18364e-05 -81.7836 
423 127.6 12.8732 35.4048 3.21764 -82.4474 
490 207.2 9.65633 38.6228 0.000179632 -81.71 
494 127.6 9.65521 38.6234 3.21823 -82.5296 
500 207.2 12.8749 38.6228 3.21902 -81.7911 
1213 127.6 9.65457 35.4048 6.43608 -82.4536 
1217 127.6 12.8725 32.186 6.43539 -82.3643 
1219 207.2 12.8745 35.4043 6.43742 -81.8841 
1290 207.2 9.6564 38.6228 6.43783 -81.7849 
1297 127.6 12.8732 38.6237 6.43613 -82.4135 
422 127.6 16.0913 32.186 3.21699 -82.3684 
502 127.6 16.092 38.6237 3.21767 -82.4147 
1221 127.6 16.0908 35.405 6.43488 -82.3025 
424 207.2 16.093 35.4044 3.21852 -81.8806 
430 127.6 22.5278 32.186 3.21441 -82.26 
431 127.6 19.3097 35.405 3.21639 -82.3248 
432 207.2 22.5293 35.4045 3.21682 -81.9877 
498 207.2 16.0934 38.6228 7.08636e-05 -81.8112 
508 207.2 19.3116 38.6229 3.21861 -81.9058 
510 127.6 22.5287 38.6241 3.21611 -82.311 
1225 127.6 19.3083 32.1861 6.43287 -82.2096 
1227 207.2 19.3107 35.4044 6.43643 -82.0339 
1229 127.6 22.5274 35.4055 6.43113 -82.1625 
1298 207.2 16.0932 38.6228 6.43769 -81.9255 
1305 127.6 19.3096 38.6241 6.43477 -82.2688 
1306 207.2 22.5293 38.6231 6.43589 -82.0571 
438 127.6 28.9664 32.1861 3.20995 -82.2051 
439 127.6 25.7469 35.4055 3.21279 -82.2427 
440 207.2 28.9666 35.4051 3.21286 -82.0462 
516 207.2 25.7481 38.6235 3.21626 -81.9872 
518 127.6 28.9666 38.6252 3.21296 -82.2617 
1233 127.6 25.7462 32.186 6.42578 -82.0862 
1235 207.2 25.7474 35.4049 6.43062 -82.156 
1237 127.6 28.9663 35.4063 6.42397 -82.0812 
1313 127.6 25.747 38.6252 6.43009 -82.159 
1314 207.2 28.9667 38.6244 6.4307 -82.1336 
524 207.2 32.1859 38.6241 3.21448 -82.0053 
444 207.2 32.1859 32.1859 3.21129 -82.0697 
446 127.6 35.4059 32.1862 3.21049 -82.2223 
447 127.6 32.1862 35.4059 3.21049 -82.2223 
448 207.2 35.4051 35.4051 3.21333 -82.0252 
455 127.6 38.625 35.4055 3.21348 -82.2812 
526 127.6 35.4055 38.625 3.21348 -82.2812 
532 207.2 38.6234 38.6234 3.21662 -81.9482 
1241 127.6 32.1864 32.1864 6.42142 -82.0541 
1242 207.2 35.4056 32.186 6.42671 -82.1905 
1243 207.2 32.186 35.4056 6.42671 -82.1905 
1245 127.6 35.4062 35.4062 6.42515 -82.1047 
1249 127.6 38.6259 32.1862 6.42698 -82.1322 
1251 207.2 38.6242 35.4049 6.43156 -82.1067 
1321 127.6 32.1862 38.6259 6.42698 -82.1322 
1322 207.2 35.4049 38.6242 6.43156 -82.1067 
1329 127.6 38.625 38.625 6.43112 -82.2077 
454 127.6 41.8441 32.1861 3.21489 -82.3152 
456 207.2 41.8423 35.4045 3.21707 -81.9324 
463 127.6 45.0621 35.405 3.21671 -82.389 
534 127.6 41.8432 38.624 3.21643 -82.3644 
540 207.2 45.0601 38.6229 3.21856 -81.8449 
1253 127.6 41.8444 35.4054 6.43203 -82.2304 
1257 127.6 45.0633 32.1861 6.43354 -82.2932 
1259 207.2 45.0609 35.4044 6.43648 -81.9507 
1330 207.2 41.8422 38.6231 6.43598 -81.9895 
1337 127.6 45.0622 38.624 6.43504 -82.3493 
464 207.2 48.2788 35.4044 3.21846 -81.814 
538 207.2 48.2784 38.6228 3.75597e-05 -81.7561 
1338 207.2 48.2787 38.6229 6.43747 -81.8453 
462 127.6 48.2804 32.186 3.2173 -82.4359 
470 127.6 54.7167 32.186 3.21811 -82.5472 
471 127.6 51.4985 35.4048 3.21776 -82.5096 
472 207.2 54.7158 35.4043 3.2187 -81.707 
542 127.6 48.2798 38.6236 3.21782 -82.4782 
546 207.2 54.7156 38.6228 0.000150464 -81.6668 
548 207.2 51.4969 38.6229 3.21892 -81.7323 
550 127.6 54.7164 38.6234 3.2183 -82.5784 
1261 127.6 48.2809 35.4049 6.43525 -82.3879 
1265 127.6 51.499 32.186 6.43582 -82.4442 
1267 207.2 51.4974 35.4043 6.43728 -81.8059 
1269 127.6 54.717 35.4047 6.43624 -82.5173 
1345 127.6 51.4984 38.6236 6.43627 -82.4871 
1346 207.2 54.7156 38.6229 6.43767 -81.7252 
407 127.6 64.3717 35.4047 3.21832 -82.6086 
1201 127.6 64.3717 32.186 6.43663 -82.5681 
1281 127.6 64.3717 38.6233 6.43678 -82.5964 
475 207.2 57.9344 35.4044 6.11769e-05 -81.6559 
478 127.6 61.1534 32.186 3.21824 -82.6002 
479 127.6 57.935 35.4047 3.21818 -82.5932 
480 207.2 61.1531 35.4044 3.21884 -81.6559 
554 207.2 61.1531 38.6229 9.57781e-05 -81.6239 
556 207.2 57.9343 38.6228 3.21893 -81.654 
558 127.6 61.1533 38.6233 3.21835 -82.6262 
1273 127.6 57.9352 32.186 6.43657 -82.5472 
1275 207.2 57.9345 35.4043 6.43746 -81.707 
1277 127.6 61.1534 35.4047 6.43667 -82.5799 
1353 127.6 57.9349 38.6234 6.43677 -82.5785 
1354 207.2 61.1531 38.6228 6.43762 -81.6667 
483 207.2 7.86968e-05 41.8414 8.13979e-05 -81.602 
488 207.2 3.21884 41.8414 3.21885 -81.6322 
491 207.2 6.43755 41.8413 0.000102688 -81.6444 
495 127.6 6.43677 41.842 3.21828 -82.6031 
562 207.2 3.2188 45.0599 8.67475e-05 -81.5894 
564 207.2 8.26637e-05 45.0599 3.21881 -81.5888 
566 127.6 3.21836 45.0606 3.21835 -82.6619 
572 207.2 6.43755 45.0599 3.21887 -81.6305 
1283 207.2 0.000102812 41.8413 6.43755 -81.6431 
1285 127.6 3.21829 41.842 6.43676 -82.6038 
1291 207.2 6.43768 41.8413 6.43768 -81.6971 
1362 207.2 3.21886 45.0599 6.43755 -81.63 
1369 127.6 6.43675 45.0607 6.43675 -82.6036 
563 207.2 6.50716e-05 48.2785 6.76271e-05 -81.5494 
568 207.2 3.2188 48.2785 3.2188 -81.5735 
571 207.2 6.43748 48.2785 8.28155e-05 -81.5834 
1363 207.2 7.98268e-05 48.2785 6.43749 -81.5824 
1371 207.2 6.43756 48.2784 6.43757 -81.6248 
496 207.2 9.65632 41.8413 3.21899 -81.7039 
499 207.2 12.8749 41.8413 0.000192724 -81.7269 
503 127.6 12.8738 41.8421 3.2182 -82.5097 
570 207.2 9.65621 45.0599 0.000113411 -81.6489 
574 127.6 9.65529 45.0607 3.21826 -82.5971 
580 207.2 12.8749 45.0598 3.219 -81.7134 
1293 127.6 9.65518 41.8421 6.43663 -82.5164 
1299 207.2 12.8751 41.8412 6.43799 -81.8087 
1370 207.2 9.65634 45.0598 6.4377 -81.7062 
1377 127.6 12.8737 45.0608 6.43654 -82.5055 
582 127.6 16.0924 45.0608 3.21814 -82.5039 
1301 127.6 16.092 41.8425 6.43624 -82.3897 
576 207.2 9.6562 48.2784 3.21888 -81.631 
579 207.2 12.8748 48.2784 0.000120514 -81.6508 
1379 207.2 12.8749 48.2783 6.43774 -81.7088 
504 207.2 16.0935 41.8413 3.21916 -81.8086 
507 207.2 19.312 41.8413 0.000156894 -81.8212 
511 127.6 19.3108 41.8425 3.21781 -82.4031 
512 207.2 22.5302 41.8414 3.21876 -81.9036 
578 207.2 16.0935 45.0597 0.000179133 -81.7333 
586 207.2 22.5304 45.0598 0.000145035 -81.8103 
588 207.2 19.312 45.0597 3.21914 -81.808 
590 127.6 22.5295 45.0611 3.21785 -82.4155 
1307 207.2 19.3119 41.8413 6.43806 -81.9387 
1309 127.6 22.5288 41.8431 6.43497 -82.2684 
1378 207.2 16.0936 45.0597 6.43794 -81.8178 
1385 127.6 19.3108 45.0612 6.43627 -82.3902 
1386 207.2 22.5303 45.0598 6.43807 -81.9216 
584 207.2 16.0935 48.2783 3.21901 -81.7128 
587 207.2 19.312 48.2783 0.000171862 -81.7267 
592 207.2 22.5304 48.2782 3.21912 -81.7889 
1387 207.2 19.312 48.2782 6.4379 -81.808 
519 127.6 25.7479 41.8433 3.21611 -82.3288 
520 207.2 28.9671 41.8425 3.21675 -81.9517 
596 207.2 25.7487 45.0601 3.21853 -81.8771 
598 127.6 28.967 45.0622 3.21644 -82.3725 
1315 207.2 25.7484 41.8423 6.43563 -82.0374 
1317 127.6 28.9668 41.8448 6.43126 -82.2053 
1393 127.6 25.748 45.0624 6.43476 -82.3074 
1394 207.2 28.9672 45.0612 6.43604 -81.9739 
604 207.2 32.1858 45.0608 3.21785 -81.8914 
1323 207.2 32.1858 41.8432 6.43358 -82.0596 
595 207.2 25.7488 48.2783 5.1145e-05 -81.781 
1395 207.2 25.7487 48.2787 6.43752 -81.88 
527 127.6 32.1861 41.8441 3.21489 -82.3152 
528 207.2 35.4045 41.8423 3.21707 -81.9324 
535 127.6 38.624 41.8432 3.21643 -82.3644 
606 127.6 35.405 45.0621 3.21671 -82.389 
612 207.2 38.6229 45.0601 3.21856 -81.8449 