ITEM: TIMESTEP
23
ITEM: NUMBER OF ATOMS
7743
ITEM: BOX BOUNDS pp pp pp
0.0000000000000000e+00 6.4371799999999993e+01
0.0000000000000000e+00 6.4371799999999993e+01
0.0000000000000000e+00 6.4371799999999993e+01
ITEM: ATOMS id mass x y z c_peratom 
2 207.2 3.21749 0.000932921 0.00093293 -92.3282 
3 207.2 0.00093292 3.21749 0.000932908 -92.3282 
4 207.2 0.000932917 0.000932904 3.21749 -92.3282 
8 207.2 3.21771 3.21771 3.21771 -92.3418 
11 207.2 6.43431 3.21766 0.00125846 -92.1703 
12 207.2 6.43431 0.00125847 3.21766 -92.1703 
15 127.6 6.43942 3.21914 3.21914 -72.0576 
82 207.2 3.21766 6.43431 0.00125845 -92.1703 
84 207.2 0.00125845 6.43431 3.21766 -92.1703 
86 127.6 3.21914 6.43942 3.21914 -72.0576 
92 207.2 6.43468 6.43468 3.21819 -92.074 
802 207.2 3.21766 0.00125846 6.43431 -92.1703 
803 207.2 0.00125847 3.21766 6.43431 -92.1703 
805 127.6 3.21914 3.21914 6.43942 -72.0576 
811 207.2 6.43468 3.21819 6.43468 -92.074 
882 207.2 3.21819 6.43468 6.43468 -92.074 
889 127.6 6.4392 6.4392 6.4392 -72.3118 
10 207.2 9.65123 0.00126354 0.00126352 -91.8581 
16 207.2 9.65158 3.21798 3.21798 -91.9257 
19 207.2 12.8688 3.21758 0.00177196 -91.4777 
20 207.2 12.8688 0.00177197 3.21758 -91.4777 
23 127.6 12.8791 3.21896 3.21896 -72.7361 
90 207.2 9.65133 6.43418 0.0018299 -91.7254 
94 127.6 9.65955 6.43938 3.21848 -72.4739 
100 207.2 12.8692 6.43477 3.21872 -91.3774 
810 207.2 9.65133 0.00182986 6.43418 -91.7254 
813 127.6 9.65955 3.21848 6.43938 -72.4739 
819 207.2 12.8692 3.21872 6.43477 -91.3774 
890 207.2 9.65192 6.43491 6.43491 -91.666 
897 127.6 12.8792 6.43957 6.43957 -73.0128 
18 207.2 16.0866 0.00182602 0.00182602 -90.9767 
24 207.2 16.0869 3.21862 3.21862 -91.0467 
98 207.2 16.0867 6.43448 0.00266003 -90.7932 
818 207.2 16.0867 0.00266003 6.43448 -90.7932 
898 207.2 16.0863 6.4352 6.4352 -90.7562 
26 207.2 22.5244 0.00286525 0.00286526 -90.0124 
27 207.2 19.3052 3.2179 0.00280619 -90.489 
28 207.2 19.3052 0.00280616 3.2179 -90.489 
31 127.6 19.3167 3.21959 3.21959 -73.7268 
32 207.2 22.5239 3.21845 3.21845 -90.0416 
102 127.6 16.0985 6.44051 3.21889 -73.3819 
106 207.2 22.5236 6.43212 0.00470341 -89.7291 
108 207.2 19.3047 6.43405 3.21915 -90.3514 
110 127.6 22.5349 6.44067 3.22075 -74.4356 
821 127.6 16.0985 3.21889 6.44051 -73.3819 
826 207.2 22.5236 0.00470342 6.43212 -89.7291 
827 207.2 19.3047 3.21915 6.43405 -90.3514 
829 127.6 22.5349 3.22075 6.44067 -74.4356 
905 127.6 19.3172 6.44092 6.44092 -74.0524 
906 207.2 22.5227 6.43492 6.43492 -89.6644 
34 207.2 28.9645 0.0025565 0.0025565 -89.3109 
35 207.2 25.7438 3.2168 0.0040304 -89.584 
36 207.2 25.7438 0.00403039 3.2168 -89.584 
39 127.6 25.7523 3.2201 3.2201 -74.6567 
40 207.2 28.9636 3.21636 3.21636 -89.2858 
114 207.2 28.9634 6.42838 0.00462875 -88.9594 
116 207.2 25.7428 6.4313 3.21911 -89.3708 
118 127.6 28.9701 6.43923 3.22052 -75.2556 
834 207.2 28.9634 0.00462875 6.42838 -88.9594 
835 207.2 25.7428 3.21911 6.4313 -89.3708 
837 127.6 28.9701 3.22052 6.43923 -75.2556 
913 127.6 25.7535 6.44169 6.44169 -75.109 
914 207.2 28.9626 6.43113 6.43113 -88.7374 
43 207.2 32.1845 3.21443 0.00240095 -89.1149 
44 207.2 32.1845 0.00240095 3.21443 -89.1149 
124 207.2 32.1837 6.42765 3.21586 -88.7868 
843 207.2 32.1837 3.21586 6.42765 -88.7868 
42 207.2 35.4054 0.00121221 0.00121219 -89.1674 
47 127.6 32.1869 3.21885 3.21885 -75.1649 
48 207.2 35.4051 3.21386 3.21386 -89.0774 
51 207.2 38.6262 3.21375 0.000973019 -89.2684 
52 207.2 38.6262 0.000973031 3.21375 -89.2684 
55 127.6 38.6214 3.21881 3.21881 -75.0537 
122 207.2 35.4053 6.4261 0.00204173 -88.7604 
126 127.6 35.4045 6.43755 3.2188 -75.5364 
132 207.2 38.6263 6.42698 3.21432 -88.8523 
842 207.2 35.4053 0.00204174 6.4261 -88.7604 
845 127.6 35.4045 3.2188 6.43755 -75.5364 
851 207.2 38.6263 3.21432 6.42698 -88.8523 
921 127.6 32.188 6.44027 6.44027 -75.8032 
922 207.2 35.4048 6.42649 6.42649 -88.3587 
929 127.6 38.6222 6.44079 6.44079 -75.8141 
50 207.2 41.8466 0.000631451 0.000631437 -89.6413 
56 207.2 41.8467 3.21483 3.21483 -89.5026 
59 207.2 45.0665 3.21557 0.000495287 -89.9779 
60 207.2 45.0665 0.000495319 3.21557 -89.9779 
63 127.6 45.056 3.22069 3.22069 -74.3523 
130 207.2 41.8471 6.4287 0.000813056 -89.2104 
134 127.6 41.8388 6.44031 3.2208 -75.1278 
140 207.2 45.0668 6.43115 3.21616 -89.5678 
850 207.2 41.8471 0.000813042 6.4287 -89.2104 
853 127.6 41.8388 3.2208 6.44031 -75.1278 
859 207.2 45.0668 3.21616 6.43115 -89.5678 
930 207.2 41.8473 6.42969 6.42969 -88.736 
937 127.6 45.0554 6.44431 6.44431 -75.0862 
142 127.6 48.273 6.44272 3.22189 -74.1736 
861 127.6 48.273 3.22189 6.44272 -74.1736 
58 207.2 48.2853 0.000486739 0.000486753 -90.5352 
64 207.2 48.2855 3.21653 3.21653 -90.3991 
66 207.2 54.7216 0.000519429 0.000519438 -91.5209 
67 207.2 51.5038 3.21634 0.000517507 -90.9831 
68 207.2 51.5038 0.000517514 3.21634 -90.9831 
71 127.6 51.4919 3.22062 3.22062 -73.3431 
72 207.2 54.7218 3.2168 3.2168 -91.4212 
138 207.2 48.2857 6.43255 0.000494571 -90.1635 
146 207.2 54.722 6.43319 0.000629457 -91.2328 
148 207.2 51.5041 6.43298 3.21694 -90.6463 
150 127.6 54.7103 6.44106 3.22062 -73.0833 
858 207.2 48.2857 0.000494595 6.43255 -90.1635 
866 207.2 54.722 0.000629465 6.43319 -91.2328 
867 207.2 51.5041 3.21694 6.43298 -90.6463 
869 127.6 54.7103 3.22062 6.44106 -73.0833 
938 207.2 48.286 6.43319 6.43319 -89.7337 
945 127.6 51.4904 6.44331 6.44331 -73.9284 
946 207.2 54.7222 6.4334 6.4334 -90.9194 
7 127.6 64.3707 3.21941 3.21941 -71.9386 
881 127.6 64.3702 6.43968 6.43968 -72.243 
74 207.2 61.1558 0.000683838 0.000683828 -92.2035 
75 207.2 57.939 3.2171 0.000670466 -91.8804 
76 207.2 57.939 0.000670472 3.2171 -91.8804 
79 127.6 57.9306 3.22001 3.22001 -72.4173 
80 207.2 61.1562 3.21739 3.21739 -92.157 
154 207.2 61.1562 6.43404 0.000907771 -91.9902 
156 207.2 57.9395 6.43376 3.21715 -91.6383 
158 127.6 61.1501 6.43991 3.21972 -72.2878 
874 207.2 61.1562 0.00090777 6.43404 -91.9902 
875 207.2 57.9395 3.21715 6.43376 -91.6383 
877 127.6 61.1501 3.21972 6.43991 -72.2878 
953 127.6 57.9294 6.44093 6.44093 -72.8433 
954 207.2 61.1567 6.43403 6.43403 -91.7954 
83 207.2 0.00126354 9.65123 0.00126353 -91.8581 
88 207.2 3.21798 9.65158 3.21798 -91.9257 
91 207.2 6.43418 9.65133 0.0018299 -91.7254 
95 127.6 6.43938 9.65955 3.21848 -72.4739 
162 207.2 3.21758 12.8688 0.00177196 -91.4777 
164 207.2 0.00177196 12.8688 3.21758 -91.4777 
166 127.6 3.21896 12.8791 3.21896 -72.7361 
172 207.2 6.43477 12.8692 3.21872 -91.3774 
883 207.2 0.00182986 9.65133 6.43418 -91.7254 
885 127.6 3.21848 9.65955 6.43938 -72.4739 
891 207.2 6.43491 9.65192 6.43491 -91.666 
962 207.2 3.21872 12.8692 6.43477 -91.3774 
969 127.6 6.43957 12.8792 6.43957 -73.0128 
163 207.2 0.00182603 16.0866 0.00182603 -90.9767 
168 207.2 3.21862 16.0869 3.21862 -91.0467 
171 207.2 6.43448 16.0867 0.00266003 -90.7932 
963 207.2 0.00266003 16.0867 6.43448 -90.7932 
971 207.2 6.4352 16.0863 6.4352 -90.7562 
96 207.2 9.65168 9.65168 3.21858 -91.4871 
99 207.2 12.8689 9.65128 0.00244832 -90.9418 
103 127.6 12.8797 9.66041 3.21821 -73.2117 
170 207.2 9.65128 12.8689 0.0024483 -90.9418 
174 127.6 9.66041 12.8797 3.21821 -73.2117 
180 207.2 12.8684 12.8684 3.22009 -90.5828 
893 127.6 9.65944 9.65944 6.43904 -72.8905 
899 207.2 12.8685 9.65165 6.4357 -90.9541 
970 207.2 9.65165 12.8685 6.4357 -90.9541 
977 127.6 12.8803 12.8803 6.44132 -73.7522 
104 207.2 16.0862 9.6511 3.21978 -90.5267 
178 207.2 16.0857 12.8674 0.00414255 -89.8187 
978 207.2 16.0853 12.8676 6.4387 -89.9519 
176 207.2 9.6511 16.0862 3.21978 -90.5267 
179 207.2 12.8674 16.0857 0.00414254 -89.8187 
979 207.2 12.8676 16.0853 6.4387 -89.9519 
184 207.2 16.0838 16.0838 3.22457 -89.3816 
107 207.2 19.3044 9.64909 0.00439192 -89.7969 
111 127.6 19.3174 9.66083 3.22047 -74.3099 
112 207.2 22.5225 9.64764 3.22245 -89.3853 
182 127.6 16.0995 12.8807 3.22041 -74.2515 
186 207.2 22.5217 12.8607 0.0103087 -88.558 
188 207.2 19.303 12.8651 3.22407 -89.3815 
190 127.6 22.536 12.8787 3.22679 -75.5084 
901 127.6 16.0989 9.66085 6.44098 -73.8286 
907 207.2 19.3035 9.65079 6.43732 -89.8516 
909 127.6 22.5365 9.66245 6.44559 -75.0149 
985 127.6 19.3189 12.8817 6.44731 -74.9598 
986 207.2 22.5213 12.8647 6.44281 -88.6014 
187 207.2 19.3008 16.0803 0.0116887 -88.4438 
192 207.2 22.519 16.0764 3.23166 -87.9655 
987 207.2 19.3017 16.0828 6.44631 -88.5693 
115 207.2 25.7424 9.64341 0.00729875 -88.7499 
117 127.6 28.9699 9.65736 0.000402052 -75.8832 
119 127.6 25.7533 9.65885 3.22335 -75.3919 
120 207.2 28.9624 9.64255 3.22039 -88.4596 
193 127.6 25.7528 12.8754 0.00325412 -76.241 
194 207.2 28.9619 12.8545 0.0112356 -87.5989 
196 207.2 25.741 12.8582 3.22612 -88.1669 
198 127.6 28.9714 12.8759 3.2275 -76.5647 
915 207.2 25.7417 9.6472 6.43629 -88.6671 
917 127.6 28.9727 9.66121 6.44548 -76.0927 
993 127.6 25.7564 12.8805 6.45121 -76.3397 
994 207.2 28.9615 12.8581 6.43627 -87.3243 
123 207.2 32.1838 9.63961 0.00461035 -88.1645 
204 207.2 32.1831 12.8527 3.21853 -87.3804 
923 207.2 32.1832 9.6415 6.42993 -87.8159 
195 207.2 25.7387 16.0706 0.0194638 -87.1658 
197 127.6 28.9689 16.0901 0.00982965 -77.5509 
200 207.2 28.9598 16.0696 3.22627 -86.7663 
995 207.2 25.7391 16.0748 6.44364 -86.96 
203 207.2 32.1828 16.0657 0.0124795 -86.4215 
1003 207.2 32.1823 16.0673 6.42586 -85.7294 
127 127.6 32.1877 9.65679 3.22168 -76.0666 
128 207.2 35.405 9.6387 3.21501 -88.1074 
131 207.2 38.6268 9.63958 0.00151947 -88.2786 
135 127.6 38.6219 9.6572 3.22142 -76.0516 
201 127.6 32.1869 12.8724 0.00134505 -76.9079 
202 207.2 35.4055 12.8516 0.00494288 -87.2997 
206 127.6 35.4057 12.8734 3.22302 -76.9957 
212 207.2 38.6276 12.8526 3.21437 -87.363 
925 127.6 35.4063 9.65901 6.44275 -76.6022 
931 207.2 38.627 9.64046 6.42785 -87.7293 
1001 127.6 32.1915 12.8783 6.44703 -77.3738 
1002 207.2 35.4055 12.8521 6.42579 -86.6727 
1009 127.6 38.6236 12.8798 6.4481 -77.5411 
205 127.6 35.4049 16.0878 0.00289632 -77.8895 
207 127.6 32.1888 16.0897 3.22623 -77.8476 
208 207.2 35.4059 16.0654 3.2129 -86.2732 
211 207.2 38.6293 16.0665 0.00435697 -86.5358 
215 127.6 38.6235 16.0905 3.22295 -77.8682 
1011 207.2 38.6282 16.0679 6.41935 -85.5103 
136 207.2 41.8476 9.64296 3.21579 -88.5082 
139 207.2 45.0672 9.64636 0.00056903 -89.0745 
143 127.6 45.0553 9.66262 3.22358 -75.2876 
210 207.2 41.8485 12.8567 0.00137106 -87.8076 
214 127.6 41.8388 12.878 3.22529 -76.573 
220 207.2 45.0685 12.8622 3.21721 -88.1928 
933 127.6 41.8389 9.66433 6.44783 -76.2437 
939 207.2 45.0681 9.64758 6.43309 -88.509 
1010 207.2 41.8489 12.8585 6.43084 -87.0398 
1017 127.6 45.0532 12.8876 6.45501 -76.6559 
222 127.6 48.2714 12.8836 3.22591 -75.4132 
941 127.6 48.2713 9.66657 6.4479 -75.1318 
216 207.2 41.8508 16.0716 3.21321 -86.7363 
219 207.2 45.0708 16.0778 0.00123304 -87.4961 
1019 207.2 45.0694 16.0807 6.43339 -86.5208 
144 207.2 48.2863 9.64911 3.21729 -89.5549 
147 207.2 51.5043 9.64975 0.000571522 -90.2563 
151 127.6 51.4902 9.66283 3.22249 -74.0881 
152 207.2 54.7224 9.65025 3.21707 -90.77 
218 207.2 48.287 12.8656 0.000319976 -88.9706 
226 207.2 54.7228 12.8677 0.000712221 -90.301 
228 207.2 51.5053 12.8671 3.21779 -89.5516 
230 127.6 54.7082 12.8815 3.22244 -74.0422 
947 207.2 51.5048 9.65028 6.43413 -89.8115 
949 127.6 54.7082 9.66271 6.44334 -73.8011 
1018 207.2 48.2873 12.8666 6.43567 -88.3301 
1025 127.6 51.4869 12.8857 6.4497 -75.151 
1026 207.2 54.7229 12.8675 6.43422 -89.8665 
224 207.2 48.2889 16.0826 3.21825 -88.0372 
227 207.2 51.5065 16.0846 0.000455652 -88.9684 
232 207.2 54.7239 16.0854 3.21764 -89.5948 
1027 207.2 51.5059 16.0852 6.43636 -88.2979 
87 127.6 64.3703 9.65949 3.2194 -72.3858 
961 127.6 64.3692 12.8796 6.44034 -72.9582 
155 207.2 57.9398 9.65065 0.000874638 -91.3135 
159 127.6 57.9294 9.66072 3.22058 -72.9867 
160 207.2 61.1568 9.65105 3.21736 -91.6557 
234 207.2 61.157 12.8684 0.00121435 -91.2342 
236 207.2 57.9403 12.8682 3.21738 -90.7968 
238 127.6 61.1492 12.8797 3.22035 -73.0385 
955 207.2 57.94 9.65074 6.43373 -91.0342 
957 127.6 61.149 9.66052 6.44071 -72.7977 
1033 127.6 57.9269 12.8813 6.44323 -73.7505 
1034 207.2 61.1572 12.8686 6.43396 -91.0107 
235 207.2 57.9408 16.0861 0.00103252 -90.2976 
240 207.2 61.1576 16.0865 3.21766 -90.7227 
1035 207.2 57.9407 16.0857 6.43395 -89.918 
175 127.6 6.44051 16.0985 3.21889 -73.3819 
242 207.2 3.2179 19.3052 0.00280619 -90.489 
243 207.2 0.00286526 22.5244 0.00286527 -90.0124 
244 207.2 0.00280619 19.3052 3.2179 -90.489 
246 127.6 3.21959 19.3167 3.21959 -73.7268 
248 207.2 3.21845 22.5239 3.21845 -90.0416 
251 207.2 6.43212 22.5236 0.00470338 -89.7291 
252 207.2 6.43405 19.3047 3.21915 -90.3514 
255 127.6 6.44067 22.5349 3.22075 -74.4356 
965 127.6 3.21889 16.0985 6.44051 -73.3819 
1042 207.2 3.21915 19.3047 6.43405 -90.3514 
1043 207.2 0.00470341 22.5236 6.43212 -89.7291 
1045 127.6 3.22075 22.5349 6.44067 -74.4356 
1049 127.6 6.44092 19.3172 6.44092 -74.0524 
1051 207.2 6.43492 22.5227 6.43492 -89.6643 
183 127.6 12.8807 16.0995 3.22041 -74.2515 
250 207.2 9.64909 19.3044 0.00439192 -89.7969 
254 127.6 9.66083 19.3174 3.22047 -74.3099 
256 207.2 9.64764 22.5225 3.22245 -89.3853 
259 207.2 12.8607 22.5217 0.0103088 -88.558 
260 207.2 12.8651 19.303 3.22407 -89.3815 
263 127.6 12.8787 22.536 3.22679 -75.5084 
973 127.6 9.66085 16.0989 6.44098 -73.8286 
1050 207.2 9.65079 19.3035 6.43732 -89.8516 
1053 127.6 9.66245 22.5365 6.44559 -75.0149 
1057 127.6 12.8817 19.3189 6.44731 -74.9598 
1059 207.2 12.8647 22.5213 6.44281 -88.6014 
258 207.2 16.0803 19.3008 0.0116887 -88.4438 
264 207.2 16.0764 22.519 3.23166 -87.9655 
1058 207.2 16.0828 19.3017 6.44631 -88.5693 
189 127.6 22.5345 16.0945 0.00689984 -76.4878 
191 127.6 19.3177 16.0986 3.22827 -75.5741 
261 127.6 16.0945 22.5345 0.00689986 -76.4878 
262 127.6 16.0986 19.3177 3.22827 -75.5741 
265 127.6 19.3148 19.3148 0.00828294 -76.5801 
266 207.2 22.5146 19.2912 0.026165 -86.9202 
267 207.2 19.2912 22.5146 0.026165 -86.9202 
268 207.2 19.2974 19.2974 3.23428 -87.8893 
269 127.6 22.5274 22.5274 0.0249651 -78.1433 
270 127.6 22.5337 19.3127 3.23911 -77.1599 
271 127.6 19.3127 22.5337 3.23911 -77.1599 
272 207.2 22.5097 22.5097 3.23729 -86.2077 
981 127.6 16.1007 16.1007 6.44758 -74.94 
989 127.6 22.5389 16.0999 6.45712 -76.4934 
1061 127.6 16.0999 22.5389 6.45712 -76.4934 
1065 127.6 19.3198 19.3198 6.45952 -76.5379 
1066 207.2 22.5164 19.294 6.44968 -86.7792 
1067 207.2 19.294 22.5164 6.44968 -86.7792 
1069 127.6 22.5356 22.5356 6.46193 -78.526 
199 127.6 25.7534 16.0934 3.23367 -76.9471 
273 127.6 25.7488 19.3068 0.0196382 -77.985 
274 207.2 28.9574 19.2841 0.0254108 -85.7587 
275 207.2 25.7306 22.5047 0.0366449 -85.4158 
276 207.2 25.735 19.2873 3.23423 -86.3538 
277 127.6 28.9645 22.5216 0.0240146 -79.3685 
278 127.6 28.9694 19.3081 3.23507 -78.4942 
279 127.6 25.7482 22.5264 3.24074 -78.8536 
280 207.2 28.9537 22.5028 3.22066 -84.7572 
997 127.6 28.9753 16.0979 6.45421 -78.0054 
1073 127.6 25.757 19.3154 6.46035 -78.3936 
1074 207.2 28.9569 19.2865 6.43152 -85.0255 
1075 207.2 25.7301 22.5051 6.43105 -84.6878 
1077 127.6 28.9721 22.5333 6.44376 -80.4741 
283 207.2 32.1802 22.5011 0.0190289 -84.5825 
284 207.2 32.1808 19.2814 3.21418 -85.3599 
287 127.6 32.1859 22.5222 3.21814 -79.8909 
1083 207.2 32.1774 22.4987 6.38988 -83.1586 
281 127.6 32.1859 19.3035 0.0115377 -78.7818 
282 207.2 35.407 19.2816 0.0105987 -85.412 
285 127.6 35.4053 22.52 0.00725431 -79.7105 
286 127.6 35.4061 19.3051 3.21945 -79.0227 
288 207.2 35.406 22.5005 3.19233 -84.2411 
289 127.6 38.6243 19.304 0.0027345 -78.6458 
291 207.2 38.6347 22.503 0.00572633 -84.7702 
292 207.2 38.6308 19.2829 3.20335 -85.365 
295 127.6 38.626 22.5237 3.20689 -79.8511 
1005 127.6 35.4083 16.0948 6.44392 -78.7893 
1081 127.6 32.1914 19.3117 6.44233 -79.8101 
1082 207.2 35.4047 19.2809 6.40301 -84.1649 
1085 127.6 35.4062 22.5291 6.41162 -81.354 
1089 127.6 38.6233 19.3129 6.43407 -80.0159 
1091 207.2 38.6316 22.503 6.3739 -83.0457 
223 127.6 45.0551 16.0999 3.22851 -76.9389 
290 207.2 41.8547 19.2882 0.00326246 -86.0352 
293 127.6 41.846 22.5261 0.00139457 -79.0259 
294 127.6 41.8415 19.311 3.22169 -78.4868 
296 207.2 41.8587 22.5086 3.19573 -84.8633 
297 127.6 45.0587 19.314 6.60202e-05 -77.5801 
299 207.2 45.081 22.5144 0.00189585 -85.9096 
300 207.2 45.0745 19.2956 3.21262 -86.3958 
303 127.6 45.0613 22.5335 3.22184 -78.6916 
1013 127.6 41.8378 16.1012 6.45264 -78.3704 
1090 207.2 41.8524 19.2901 6.41121 -84.6546 
1093 127.6 41.8405 22.5353 6.42525 -80.7351 
1097 127.6 45.0521 19.3234 6.45558 -78.8421 
1099 207.2 45.0786 22.5175 6.41037 -84.3515 
302 127.6 48.2725 19.3195 3.22946 -77.0374 
1021 127.6 48.2667 16.1073 6.45853 -76.886 
1101 127.6 48.2695 22.5414 6.45593 -78.7988 
231 127.6 51.4883 16.1018 3.22656 -75.4254 
298 207.2 48.2932 19.2999 0.00115608 -87.4392 
301 127.6 48.279 22.5343 0.000260765 -77.503 
304 207.2 48.2986 22.5196 3.21273 -86.4438 
306 207.2 54.7263 19.3039 0.00111176 -89.0665 
307 207.2 51.5151 22.5218 0.00109406 -87.6414 
308 207.2 51.5097 19.3026 3.21802 -88.0965 
309 127.6 54.7113 22.5354 0.000151405 -75.7669 
310 127.6 54.7077 19.3184 3.22528 -75.3158 
311 127.6 51.4922 22.5366 3.22781 -76.8398 
312 207.2 54.73 22.5229 3.21663 -88.3468 
1029 127.6 54.7044 16.1022 6.44859 -75.0921 
1098 207.2 48.2908 19.3026 6.43377 -86.3697 
1105 127.6 51.4837 19.323 6.45673 -76.8229 
1106 207.2 54.7253 19.3035 6.43438 -88.4517 
1107 207.2 51.5127 22.5228 6.43209 -86.6393 
1109 127.6 54.7049 22.5375 6.45092 -76.4897 
167 127.6 64.37 16.0982 3.22017 -73.2628 
247 127.6 64.3709 22.5346 3.22031 -74.2636 
1041 127.6 64.3693 19.317 6.44116 -74.0151 
239 127.6 57.9276 16.0995 3.22215 -74.0211 
314 207.2 61.1583 19.3049 0.00180008 -90.2273 
315 207.2 57.9449 22.5236 0.00158583 -89.2217 
316 207.2 57.9425 19.3044 3.21717 -89.6711 
318 127.6 61.1488 19.3169 3.22123 -74.0655 
319 127.6 57.9293 22.5352 3.22294 -75.1316 
320 207.2 61.1605 22.524 3.21684 -89.7001 
1037 127.6 61.1472 16.0993 6.44264 -73.7927 
1113 127.6 57.925 19.3185 6.44564 -74.9706 
1114 207.2 61.1591 19.3047 6.43309 -89.9013 
1115 207.2 57.9451 22.5232 6.43152 -88.7079 
1117 127.6 61.1481 22.5352 6.44217 -74.9068 
322 207.2 3.2168 25.7438 0.00403035 -89.584 
323 207.2 0.00255651 28.9645 0.00255652 -89.3109 
324 207.2 0.00403033 25.7438 3.2168 -89.584 
326 127.6 3.2201 25.7523 3.2201 -74.6567 
328 207.2 3.21636 28.9636 3.21636 -89.2858 
331 207.2 6.42838 28.9634 0.00462874 -88.9594 
332 207.2 6.4313 25.7428 3.21911 -89.3708 
335 127.6 6.43923 28.9701 3.22052 -75.2556 
1122 207.2 3.21911 25.7428 6.4313 -89.3708 
1123 207.2 0.00462877 28.9634 6.42838 -88.9594 
1125 127.6 3.22052 28.9701 6.43923 -75.2556 
1129 127.6 6.44169 25.7535 6.44169 -75.109 
1131 207.2 6.43113 28.9626 6.43113 -88.7374 
402 207.2 3.21443 32.1845 0.00240093 -89.1149 
404 207.2 0.00240092 32.1845 3.21443 -89.1149 
412 207.2 6.42765 32.1837 3.21586 -88.7868 
1202 207.2 3.21586 32.1837 6.42765 -88.7868 
330 207.2 9.64341 25.7424 0.00729876 -88.7499 
333 127.6 9.65736 28.9699 0.00040206 -75.8831 
334 127.6 9.65885 25.7533 3.22335 -75.3919 
336 207.2 9.64255 28.9624 3.22039 -88.4596 
337 127.6 12.8754 25.7528 0.00325415 -76.241 
339 207.2 12.8545 28.9619 0.0112356 -87.5988 
340 207.2 12.8582 25.741 3.22612 -88.1669 
343 127.6 12.8759 28.9714 3.2275 -76.5647 
1130 207.2 9.6472 25.7417 6.43629 -88.6671 
1133 127.6 9.66121 28.9727 6.44548 -76.0927 
1137 127.6 12.8805 25.7564 6.45121 -76.3397 
1139 207.2 12.8581 28.9615 6.43627 -87.3243 
338 207.2 16.0706 25.7387 0.0194638 -87.1658 
341 127.6 16.0901 28.9689 0.00982965 -77.5509 
344 207.2 16.0696 28.9598 3.22627 -86.7663 
1138 207.2 16.0748 25.7391 6.44364 -86.96 
410 207.2 9.63961 32.1838 0.00461038 -88.1645 
420 207.2 12.8527 32.1831 3.21853 -87.3804 
1210 207.2 9.6415 32.1832 6.42993 -87.8159 
418 207.2 16.0657 32.1828 0.0124794 -86.4215 
1218 207.2 16.0673 32.1823 6.42586 -85.7294 
342 127.6 16.0934 25.7534 3.23367 -76.9471 
345 127.6 19.3068 25.7488 0.0196382 -77.985 
346 207.2 22.5047 25.7306 0.0366449 -85.4158 
347 207.2 19.2841 28.9574 0.0254108 -85.7587 
348 207.2 19.2873 25.735 3.23423 -86.3538 
349 127.6 22.5216 28.9645 0.0240146 -79.3685 
350 127.6 22.5264 25.7482 3.24074 -78.8536 
351 127.6 19.3081 28.9694 3.23507 -78.4942 
352 207.2 22.5028 28.9537 3.22066 -84.7572 
1141 127.6 16.0979 28.9753 6.45421 -78.0054 
1145 127.6 19.3154 25.757 6.46035 -78.3936 
1146 207.2 22.5051 25.7301 6.43105 -84.6878 
1147 207.2 19.2865 28.9569 6.43152 -85.0255 
1149 127.6 22.5333 28.9721 6.44376 -80.4741 
426 207.2 22.5011 32.1802 0.0190289 -84.5825 
428 207.2 19.2814 32.1808 3.21418 -85.3599 
430 127.6 22.5222 32.1859 3.21814 -79.8909 
1226 207.2 22.4987 32.1774 6.38988 -83.1586 
353 127.6 25.7419 25.7419 0.0296848 -79.5712 
354 207.2 28.9522 25.7251 0.0271545 -84.1516 
355 207.2 25.7251 28.9522 0.0271545 -84.1516 
356 207.2 25.7265 25.7265 3.2218 -84.566 
357 127.6 28.9615 28.9615 0.0113932 -80.6135 
358 127.6 28.9643 25.7432 3.21963 -80.3581 
359 127.6 25.7432 28.9643 3.21963 -80.3581 
360 207.2 28.9499 28.9499 3.18276 -83.2331 
1153 127.6 25.7517 25.7517 6.43981 -80.7232 
1154 207.2 28.95 25.7246 6.38565 -82.5972 
1155 207.2 25.7246 28.95 6.38565 -82.5972 
1157 127.6 28.9685 28.9685 6.39347 -82.5784 
361 127.6 32.1839 25.74 0.0098758 -80.3904 
364 207.2 32.1781 25.7231 3.18404 -83.5029 
367 127.6 32.1844 28.9624 3.17914 -81.3653 
1163 207.2 32.1766 28.9474 6.31936 -81.0706 
433 127.6 25.74 32.1839 0.0098758 -80.3904 
436 207.2 25.7231 32.1781 3.18404 -83.5029 
438 127.6 28.9624 32.1844 3.17914 -81.3653 
1234 207.2 28.9474 32.1766 6.31936 -81.0706 
444 207.2 32.1807 32.1807 3.14058 -82.5342 
362 207.2 35.409 25.7253 0.00454066 -83.8457 
366 127.6 35.4064 25.742 3.19083 -80.8521 
368 207.2 35.4096 28.9524 3.15245 -82.7974 
369 127.6 38.6293 25.742 6.81646e-05 -80.179 
372 207.2 38.6368 25.7273 3.17371 -83.6247 
375 127.6 38.6306 28.9662 3.17988 -81.2178 
1161 127.6 32.1873 25.7469 6.39417 -82.2493 
1162 207.2 35.4053 25.7236 6.34003 -81.8012 
1165 127.6 35.4062 28.9688 6.35277 -83.3056 
1169 127.6 38.625 25.751 6.38461 -82.2927 
1171 207.2 38.6382 28.9561 6.32357 -81.1981 
452 207.2 38.6435 32.1848 3.14978 -82.7364 
1242 207.2 35.4135 32.1833 6.28603 -80.4695 
370 207.2 41.8642 25.7318 0.000661168 -84.5825 
374 127.6 41.8484 25.7479 3.20361 -80.1571 
376 207.2 41.8664 28.9584 3.17545 -83.5644 
380 207.2 45.0853 25.7371 3.19781 -84.8616 
383 127.6 45.0666 28.9697 3.2125 -79.8734 
1170 207.2 41.8624 25.7339 6.36757 -82.5836 
1173 127.6 41.844 28.9733 6.3996 -82.3961 
1177 127.6 45.0584 25.7569 6.43486 -80.754 
1179 207.2 45.087 28.9622 6.3887 -82.8755 
1181 127.6 48.2729 28.9728 6.44745 -80.0775 
460 207.2 45.0903 32.1857 3.18937 -84.1359 
1250 207.2 41.8694 32.1856 6.3488 -81.4908 
378 207.2 48.3041 25.74 0.000658454 -86.1759 
382 127.6 48.2796 25.7531 3.22408 -78.4314 
384 207.2 48.3057 28.9625 3.20446 -85.3813 
385 127.6 51.4976 25.7526 9.09126e-05 -77.1312 
386 207.2 54.7335 25.7433 0.00102032 -88.0312 
387 207.2 51.5211 28.9637 0.000284286 -86.7647 
388 207.2 51.519 25.7422 3.21338 -86.8554 
389 127.6 54.7147 28.9696 3.67682e-05 -76.5527 
390 127.6 54.712 25.7531 3.2249 -76.4107 
391 127.6 51.4958 28.9701 3.22541 -77.7836 
392 207.2 54.735 28.964 3.21353 -87.5087 
1178 207.2 48.3018 25.7421 6.41724 -84.6875 
1185 127.6 51.4884 25.7559 6.45328 -78.2713 
1186 207.2 54.7328 25.743 6.42917 -87.2202 
1187 207.2 51.5198 28.9639 6.42358 -85.5486 
1189 127.6 54.708 28.9705 6.44823 -77.4372 
466 207.2 54.7349 32.1854 9.48951e-05 -87.5674 
468 207.2 51.5219 32.1854 3.21 -86.2977 
1258 207.2 48.3058 32.1857 6.41028 -83.9332 
1266 207.2 54.7349 32.1852 6.42624 -86.6424 
327 127.6 64.3711 28.9695 3.21951 -74.9891 
1121 127.6 64.3712 25.7524 6.43996 -74.9811 
393 127.6 57.9319 25.7524 0.000210299 -75.4675 
394 207.2 61.1611 25.744 0.00226324 -89.3424 
395 207.2 57.9482 28.9643 0.00110522 -88.5101 
396 207.2 57.9476 25.7436 3.2154 -88.6905 
398 127.6 61.1508 25.7522 3.22091 -74.9879 
399 127.6 57.9315 28.9696 3.22159 -75.8919 
400 207.2 61.1622 28.9642 3.21464 -88.9796 
1193 127.6 57.9277 25.7531 6.44448 -76.0546 
1194 207.2 61.1627 25.7434 6.42957 -88.9046 
1195 207.2 57.9494 28.964 6.42712 -87.8588 
1197 127.6 61.1498 28.9697 6.43999 -75.6916 
474 207.2 61.161 32.1851 0.00126687 -88.9131 
476 207.2 57.9483 32.1851 3.21373 -88.2239 
1274 207.2 61.162 32.1846 6.42694 -88.4074 
403 207.2 0.00121218 35.4054 0.00121213 -89.1674 
406 127.6 3.21885 32.1869 3.21885 -75.1649 
408 207.2 3.21386 35.4051 3.21386 -89.0774 
411 207.2 6.4261 35.4053 0.00204176 -88.7604 
415 127.6 6.43755 35.4045 3.2188 -75.5364 
482 207.2 3.21375 38.6262 0.000973014 -89.2684 
484 207.2 0.000973028 38.6262 3.21375 -89.2684 
486 127.6 3.21881 38.6214 3.21881 -75.0537 
492 207.2 6.42698 38.6263 3.21432 -88.8523 
1203 207.2 0.00204175 35.4053 6.4261 -88.7604 
1205 127.6 3.2188 35.4045 6.43755 -75.5364 
1209 127.6 6.44027 32.188 6.44027 -75.8032 
1211 207.2 6.42649 35.4048 6.42649 -88.3586 
1282 207.2 3.21432 38.6263 6.42698 -88.8523 
1289 127.6 6.44079 38.6222 6.44079 -75.8141 
414 127.6 9.65679 32.1877 3.22168 -76.0666 
416 207.2 9.6387 35.405 3.21501 -88.1074 
417 127.6 12.8724 32.1869 0.00134503 -76.9079 
419 207.2 12.8516 35.4055 0.00494287 -87.2997 
423 127.6 12.8734 35.4057 3.22302 -76.9957 
490 207.2 9.63958 38.6268 0.00151948 -88.2786 
494 127.6 9.6572 38.6219 3.22142 -76.0516 
500 207.2 12.8526 38.6276 3.21437 -87.363 
1213 127.6 9.65901 35.4063 6.44275 -76.6022 
1217 127.6 12.8783 32.1915 6.44703 -77.3738 
1219 207.2 12.8521 35.4055 6.42579 -86.6727 
1290 207.2 9.64046 38.627 6.42785 -87.7293 
1297 127.6 12.8798 38.6236 6.4481 -77.5411 
421 127.6 16.0878 35.4049 0.00289632 -77.8895 
422 127.6 16.0897 32.1888 3.22623 -77.8476 
424 207.2 16.0654 35.4059 3.2129 -86.2732 
498 207.2 16.0665 38.6293 0.00435697 -86.5358 
502 127.6 16.0905 38.6235 3.22295 -77.8682 
1298 207.2 16.0679 38.6282 6.41935 -85.5103 
425 127.6 19.3035 32.1859 0.0115377 -78.7818 
427 207.2 19.2816 35.407 0.0105987 -85.412 
429 127.6 22.52 35.4053 0.00725431 -79.7105 
431 127.6 19.3051 35.4061 3.21945 -79.0227 
432 207.2 22.5005 35.406 3.19233 -84.2411 
505 127.6 19.304 38.6243 0.00273449 -78.6458 
506 207.2 22.503 38.6347 0.00572633 -84.7702 
508 207.2 19.2829 38.6308 3.20335 -85.365 
510 127.6 22.5237 38.626 3.20689 -79.851 
1221 127.6 16.0948 35.4083 6.44392 -78.7893 
1225 127.6 19.3117 32.1914 6.44233 -79.8101 
1227 207.2 19.2809 35.4047 6.40301 -84.1649 
1229 127.6 22.5291 35.4062 6.41162 -81.354 
1305 127.6 19.3129 38.6233 6.43407 -80.0159 
1306 207.2 22.503 38.6316 6.3739 -83.0457 
435 207.2 25.7253 35.409 0.00454063 -83.8457 
439 127.6 25.742 35.4064 3.19083 -80.8521 
440 207.2 28.9524 35.4096 3.15245 -82.7974 
513 127.6 25.742 38.6293 6.81593e-05 -80.179 
516 207.2 25.7273 38.6368 3.17371 -83.6247 
518 127.6 28.9662 38.6306 3.17988 -81.2177 
1233 127.6 25.7469 32.1873 6.39417 -82.2493 
1235 207.2 25.7236 35.4053 6.34003 -81.8012 
1237 127.6 28.9688 35.4062 6.35277 -83.3056 
1313 127.6 25.751 38.625 6.38461 -82.2927 
1314 207.2 28.9561 38.6382 6.32357 -81.1981 
524 207.2 32.1848 38.6435 3.14978 -82.7364 
1243 207.2 32.1833 35.4135 6.28603 -80.4695 
446 127.6 35.4107 32.188 3.15727 -81.7697 
447 127.6 32.188 35.4107 3.15727 -81.7697 
448 207.2 35.415 35.415 3.13819 -82.456 
455 127.6 38.6335 35.4106 3.1747 -81.495 
526 127.6 35.4106 38.6335 3.1747 -81.495 
532 207.2 38.6426 38.6426 3.16346 -83.0927 
1241 127.6 32.1875 32.1875 6.33151 -83.7109 
1245 127.6 35.4111 35.4111 6.33856 -83.8412 
1249 127.6 38.6312 32.1904 6.35734 -83.4605 
1251 207.2 38.6435 35.4134 6.31729 -80.7554 
1321 127.6 32.1904 38.6312 6.35734 -83.4605 
1322 207.2 35.4134 38.6435 6.31729 -80.7554 
1329 127.6 38.6257 38.6257 6.3816 -83.0894 
454 127.6 41.8527 32.1885 3.19206 -80.9409 
456 207.2 41.8692 35.4125 3.17239 -83.3428 
463 127.6 45.0671 35.4057 3.21291 -80.0444 
534 127.6 41.8499 38.6272 3.20216 -80.571 
540 207.2 45.0882 38.6343 3.19608 -84.5385 
1253 127.6 41.8446 35.4052 6.40065 -82.712 
1257 127.6 45.0597 32.1888 6.42959 -81.66 
1259 207.2 45.0884 35.4095 6.38914 -82.656 
1330 207.2 41.8667 38.6371 6.36517 -82.007 
1337 127.6 45.058 38.6185 6.43747 -81.1677 
1261 127.6 48.2727 35.4025 6.4488 -80.2422 
462 127.6 48.2818 32.1872 3.22108 -79.0649 
464 207.2 48.3066 35.4087 3.20416 -85.2428 
470 127.6 54.7128 32.1865 3.22387 -76.9128 
471 127.6 51.4958 35.4033 3.22566 -77.9048 
472 207.2 54.7348 35.4066 3.21292 -87.3926 
542 127.6 48.2799 38.6206 3.22516 -78.6896 
545 127.6 51.4977 38.6203 3.40027e-05 -77.3255 
548 207.2 51.5195 38.6289 3.21275 -86.6298 
550 127.6 54.7117 38.6199 3.2246 -76.6311 
1265 127.6 51.4893 32.187 6.45108 -78.9107 
1267 207.2 51.5201 35.407 6.42343 -85.4168 
1269 127.6 54.7075 35.4027 6.44783 -77.5733 
1338 207.2 48.3029 38.6294 6.41807 -84.3839 
1345 127.6 51.4876 38.6177 6.45441 -78.5221 
1346 207.2 54.7321 38.6279 6.42827 -86.9676 
407 127.6 64.3703 35.4037 3.21867 -75.1557 
1201 127.6 64.3703 32.1868 6.43833 -75.488 
1281 127.6 64.3698 38.6212 6.43824 -75.3611 
475 207.2 57.9476 35.4062 0.000435925 -88.4116 
478 127.6 61.1504 32.1864 3.21998 -75.4397 
479 127.6 57.9311 35.4032 3.22102 -76.0177 
480 207.2 61.1609 35.4057 3.2133 -88.8388 
554 207.2 61.1596 38.6266 0.000577955 -89.1177 
556 207.2 57.9464 38.6272 3.21393 -88.4556 
558 127.6 61.15 38.6207 3.21986 -75.2575 
1273 127.6 57.9279 32.1864 6.44333 -76.5807 
1275 207.2 57.9482 35.4061 6.42592 -87.7125 
1277 127.6 61.1491 35.4034 6.43892 -75.8534 
1353 127.6 57.9268 38.6199 6.44345 -76.332 
1354 207.2 61.1596 38.6268 6.42685 -88.5971 
483 207.2 0.000631457 41.8466 0.000631443 -89.6413 
488 207.2 3.21483 41.8467 3.21483 -89.5025 
491 207.2 6.4287 41.8471 0.000813056 -89.2104 
495 127.6 6.44031 41.8388 3.2208 -75.1278 
562 207.2 3.21557 45.0665 0.000495287 -89.9779 
564 207.2 0.000495313 45.0665 3.21557 -89.9779 
566 127.6 3.22069 45.056 3.22069 -74.3523 
572 207.2 6.43115 45.0668 3.21616 -89.5678 
1283 207.2 0.000813046 41.8471 6.4287 -89.2104 
1285 127.6 3.2208 41.8388 6.44031 -75.1278 
1291 207.2 6.42969 41.8473 6.42969 -88.736 
1362 207.2 3.21616 45.0668 6.43115 -89.5678 
1369 127.6 6.44431 45.0554 6.44431 -75.0862 