ITEM: TIMESTEP
10070
ITEM: NUMBER OF ATOMS
6447
ITEM: BOX BOUNDS pp pp pp
0.0000000000000000e+00 5.9968910999999999e+01
0.0000000000000000e+00 5.9981496000000000e+01
0.0000000000000000e+00 5.9966521999999998e+01
ITEM: ATOMS id mass x y z c_peratom 
2 207.2 3.57217 3.64812 2.03344 -88.1145 
588 127.6 6.61811 3.64928 2.86973 -72.6765 
801 207.2 6.47241 6.7596 2.32033 -87.7437 
1006 127.6 2.8232 4.88703 4.8051 -76.4516 
5583 127.6 3.50845 0.553032 3.28157 -76.9745 
5767 207.2 5.68965 3.79428 5.68972 -85.3528 
5806 207.2 1.65521 3.54175 7.12419 -73.5261 
1397 127.6 3.59394 6.77711 1.01057 -73.2602 
5155 127.6 5.57186 0.926324 6.85054 -76.7825 
5619 127.6 0.526003 3.33473 1.21203 -74.7372 
1400 127.6 59.8984 7.0183 6.03686 -78.4023 
6224 207.2 0.425062 0.739075 2.83913 -84.8364 
4621 207.2 5.00245 59.9616 0.513566 -82.7493 
4933 207.2 7.86663 6.95207 6.73684 -80.4768 
1398 127.6 9.29352 6.82918 3.96938 -71.4891 
3391 207.2 14.0373 1.65432 5.42314 -85.7202 
3601 127.6 8.7869 3.86175 6.64653 -76.3869 
3805 207.2 9.70437 3.68186 3.65428 -87.8005 
3996 127.6 14.6513 0.756797 2.3791 -78.8523 
4207 207.2 11.471 0.442584 1.95859 -85.2683 
4211 207.2 7.76598 2.90742 0.169188 -87.4595 
4404 127.6 13.2957 4.32171 4.07707 -74.1542 
4610 207.2 14.0081 3.73398 1.15504 -85.9618 
4825 127.6 10.8825 3.41293 0.673743 -76.6697 
4609 207.2 11.8367 4.76342 6.8149 -87.5305 
4417 127.6 11.0027 1.10544 4.96254 -72.0231 
3602 127.6 8.31725 0.105944 1.45101 -74.7303 
3396 207.2 12.4806 7.13305 3.25376 -86.2949 
6148 207.2 8.78592 0.59768 7.27901 -86.1059 
3366 207.2 20.3356 2.76621 6.18547 -83.2257 
3581 127.6 17.1688 4.15319 1.61698 -78.2229 
3787 207.2 16.444 5.01555 4.74412 -88.474 
3969 127.6 20.9 1.85295 3.17558 -82.1358 
4186 207.2 17.736 1.32454 2.79996 -83.2866 
4377 127.6 19.957 5.5834 5.10145 -77.249 
4583 207.2 20.2687 4.81115 2.06271 -84.1845 
4801 127.6 17.2277 2.11732 5.81507 -79.9012 
4192 207.2 16.5246 7.07248 0.525395 -86.7507 
3580 127.6 16.3415 6.02496 7.66339 -69.6483 
3367 207.2 21.4715 0.966119 0.223579 -80.937 
3330 207.2 26.6107 4.04844 6.89951 -80.5636 
3331 207.2 27.7186 2.19633 0.944182 -79.5273 
3550 127.6 23.4947 5.42426 2.3948 -81.4113 
3754 207.2 23.01 6.24407 5.41919 -82.8155 
3933 127.6 27.1533 3.14437 3.89468 -84.0769 
4154 207.2 24.0002 2.5171 3.53201 -80.8519 
4339 127.6 26.1458 6.91152 5.7701 -83.0872 
4538 207.2 27.6396 0.230784 5.03776 -79.4184 
4545 207.2 26.5963 6.08783 2.75433 -80.8184 
4767 127.6 23.524 3.37148 6.52654 -82.5434 
4768 127.6 24.6198 1.54404 0.58521 -83.8864 
3512 127.6 29.7417 6.76859 3.1063 -84.2035 
4723 127.6 29.7303 4.70796 7.24985 -84.0989 
3713 207.2 29.2186 7.6036 6.11622 -80.1892 
3288 207.2 33.9451 3.47288 1.6862 -79.0576 
3463 127.6 36.9708 2.15237 6.20569 -84.3706 
3505 127.6 30.763 0.868615 5.4081 -84.8353 
3672 207.2 36.5453 7.04646 0.915312 -79.4339 
3892 127.6 33.3634 4.45745 4.63609 -84.6271 
4075 207.2 36.471 5.08785 5.05103 -79.7159 
4116 207.2 30.2544 3.8125 4.26275 -79.4025 
4292 127.6 34.4453 0.516647 2.83092 -85.1986 
4298 127.6 33.4216 6.43887 0.541249 -85.1501 
4496 207.2 33.8733 1.52241 5.8038 -79.3976 
4683 127.6 37.0469 4.08613 2.07189 -84.94 
4724 127.6 30.8415 2.827 1.30838 -85.0192 
3666 207.2 37.5515 1.1417 3.23981 -79.4307 
3249 207.2 40.1508 4.69784 2.48674 -79.6441 
3430 127.6 43.1371 3.34566 7.01651 -82.0109 
3431 127.6 44.2897 1.36208 1.02967 -83.7607 
3632 207.2 43.7225 2.37103 4.02909 -80.7294 
3853 127.6 39.5491 5.71575 5.48634 -84.0934 
4039 207.2 42.6348 6.26607 5.89338 -80.4537 
4253 127.6 40.6273 1.76026 3.6429 -84.1091 
4457 207.2 40.0684 2.78183 6.67041 -80.6729 
4458 207.2 41.233 0.730733 0.660698 -79.7655 
4649 127.6 43.235 5.30348 2.8645 -83.4311 
3464 127.6 38.1399 0.102404 0.265659 -85.0978 
3222 207.2 46.3676 5.97667 3.25711 -81.3483 
3415 127.6 50.3633 2.74755 1.78158 -79.9708 
3614 207.2 49.8312 3.65041 4.72912 -80.2594 
3827 127.6 45.6842 6.8767 6.22893 -83.3058 
4022 207.2 49.9893 5.60762 0.673093 -81.2113 
4228 127.6 46.7925 2.98169 4.38253 -83.2809 
4431 207.2 47.3529 2.02573 1.38671 -81.3404 
4630 127.6 49.4845 6.68358 3.75128 -83.1137 
4627 127.6 50.3198 0.371559 6.04379 -83.2257 
3828 127.6 46.9043 4.9559 0.253426 -82.6157 
4019 207.2 50.9415 59.8824 2.95108 -80.9075 
3218 207.2 47.278 0.00605383 5.61726 -81.326 
589 127.6 56.5483 5.23713 2.99638 -77.3617 
1195 207.2 59.6699 5.08868 3.55032 -84.6809 
3815 127.6 53.0242 6.71611 0.897251 -81.5348 
4219 127.6 52.8583 4.42623 4.74637 -79.3397 
4422 207.2 53.8022 3.86499 1.84929 -86.0148 
5009 207.2 56.2341 2.92725 4.91506 -78.7152 
6413 127.6 59.3031 2.5122 5.37213 -81.3322 
3813 127.6 53.9443 1.03678 3.33302 -80.5205 
5828 207.2 52.9586 1.71837 6.12813 -73.7976 
402 207.2 52.5586 7.39143 3.84304 -77.8125 
6023 127.6 55.6671 0.483018 6.81274 -85.3315 
797 207.2 57.5553 2.76839 0.296085 -86.0604 
1391 127.6 57.6126 59.9183 1.67976 -78.0177 
5832 207.2 52.8252 5.55069 7.51821 -79.4624 
5618 127.6 55.9745 5.06222 7.43498 -80.8726 
401 207.2 2.30458 7.68809 3.56922 -82.7813 
209 127.6 5.26433 7.77264 5.09591 -74.3254 
10 207.2 3.31493 10.477 0.742292 -88.3413 
224 127.6 3.56263 13.6728 5.7203 -80.6213 
417 207.2 1.2377 13.8186 3.56056 -84.2498 
597 127.6 5.60783 10.4894 2.76327 -74.0431 
814 207.2 5.60142 13.5835 3.12504 -84.7987 
1015 127.6 1.53754 10.7225 3.49597 -77.6919 
1204 207.2 3.93719 10.623 5.51755 -81.3261 
1411 127.6 3.25929 13.9557 1.12912 -76.4746 
1412 127.6 7.76048 13.1516 5.41647 -80.1158 
598 127.6 12.8252 7.64192 6.38281 -70.5496 
1200 207.2 7.72484 10.3718 0.42114 -86.178 
11 207.2 7.74223 9.93292 4.80246 -82.0419 
219 127.6 7.7816 13.6133 0.78149 -77.2687 
220 127.6 11.8793 13.07 5.45719 -77.4853 
412 207.2 9.95106 13.2449 2.93095 -83.7182 
809 207.2 13.9556 12.9823 3.10032 -82.258 
1012 127.6 9.88668 10.2214 2.53636 -70.6124 
1407 127.6 12.2873 13.1447 0.541253 -77.0375 
4000 127.6 13.6337 9.95534 2.96166 -70.0825 
413 207.2 11.5762 10.0516 5.09902 -83.0494 
4614 207.2 12.61 9.96084 0.116797 -86.5971 
3372 207.2 19.5874 8.41788 3.99957 -85.7014 
3556 127.6 21.8535 13.2016 6.09761 -82.9294 
3585 127.6 15.9437 12.2681 5.27571 -75.3234 
3792 207.2 16.4906 10.6007 2.49799 -84.4716 
3975 127.6 18.9196 9.60939 6.88224 -77.4256 
3976 127.6 19.8283 7.67816 0.857258 -78.3075 
4191 207.2 15.7067 8.8518 6.28987 -91.2084 
4383 127.6 19.4818 11.2606 2.8378 -76.978 
4588 207.2 18.8968 12.5278 5.62496 -83.5506 
4807 127.6 16.6631 7.76684 3.52469 -71.2953 
3377 207.2 19.8103 13.7531 1.01504 -79.9852 
3981 127.6 16.8583 12.8949 0.56818 -72.1554 
4160 207.2 21.993 10.1788 7.22795 -83.1474 
3557 127.6 22.1792 11.3176 0.101605 -76.5694 
3761 207.2 22.4483 11.9212 3.17273 -80.7188 
3336 207.2 25.6942 9.78712 4.66879 -81.4023 
3518 127.6 28.7177 12.956 0.887442 -83.937 
3720 207.2 28.277 13.3 3.88992 -72.5474 
3940 127.6 26.0882 9.02292 1.66467 -79.9921 
4123 207.2 29.1314 9.76223 1.94736 -78.9037 
4161 207.2 22.9319 8.4104 1.23792 -83.2975 
4346 127.6 25.3899 12.6863 3.64988 -79.0287 
4551 207.2 24.8683 13.7747 6.46869 -80.5991 
4552 207.2 25.1982 12.7246 0.484015 -83.1691 
4730 127.6 28.8022 10.5284 5.02421 -85.6644 
4773 127.6 22.6606 9.10773 4.33687 -81.166 
3517 127.6 27.9048 14.4067 7.04837 -86.4537 
4779 127.6 22.7346 14.5891 1.62428 -76.4159 
4503 207.2 32.8295 7.42897 3.48025 -78.9075 
3294 207.2 31.8178 11.2137 5.42538 -76.3061 
3470 127.6 35.9284 8.02987 3.85979 -84.5433 
3476 127.6 34.9019 14.0383 1.61891 -84.1939 
3671 207.2 35.4207 8.9717 6.83539 -80.1924 
3899 127.6 32.257 10.522 2.39139 -85.9897 
4082 207.2 35.4388 11.0396 2.73453 -79.8967 
4297 127.6 32.3202 8.29547 6.46242 -84.6156 
4509 207.2 31.8161 13.5154 1.21928 -77.8783 
4688 127.6 34.8156 11.9258 5.68837 -83.2459 
4259 127.6 39.6481 7.62534 1.30873 -84.1345 
3226 207.2 44.184 14.0381 6.50896 -81.519 
3254 207.2 37.9698 12.626 6.09394 -82.209 
3436 127.6 42.1524 9.20192 4.7201 -84.0818 
3441 127.6 41.2123 14.8197 2.23301 -78.6263 
3638 207.2 42.7703 8.22738 1.7109 -80.2551 
3858 127.6 38.5242 11.5041 3.11246 -82.7136 
4044 207.2 41.6156 12.098 3.53636 -81.8325 
4258 127.6 38.4586 9.69767 7.27263 -83.1906 
4463 207.2 39.0445 8.62765 4.30143 -80.1064 
4468 207.2 38.1217 14.5218 2.02784 -82.6509 
4653 127.6 41.1102 13.2198 6.49105 -82.9174 
4654 127.6 42.2514 11.1252 0.485405 -82.8561 
3255 207.2 39.1431 10.5919 0.133501 -80.5729 
3831 127.6 44.7791 12.724 3.7829 -83.9036 
4021 207.2 48.6863 7.24715 6.93004 -79.1943 
15 207.2 51.1868 10.3233 6.94677 -80.7586 
1205 207.2 47.9166 13.0362 4.51629 -81.922 
1418 127.6 50.5589 13.3677 6.337 -76.8086 
3227 207.2 45.3384 11.6949 0.887487 -80.8402 
3417 127.6 48.2772 10.1357 5.79388 -81.0758 
3618 207.2 49.128 9.61112 2.55848 -80.9042 
4232 127.6 45.8822 8.85932 2.10352 -82.0103 
4435 207.2 45.2461 9.84812 5.11534 -81.0446 
599 127.6 48.3739 12.3524 1.3151 -79.4529 
421 207.2 52.3879 14.0195 4.13177 -75.7641 
1017 127.6 52.3099 10.607 3.85839 -82.4023 
229 127.6 47.0631 14.4103 7.24856 -74.7203 
400 207.2 56.9016 7.36053 0.465645 -87.1597 
208 127.6 59.5381 7.79016 2.02461 -72.4811 
13 207.2 54.2325 11.3256 1.60631 -76.4474 
14 207.2 59.3732 10.2554 5.66218 -82.5017 
210 127.6 53.765 8.29454 6.52642 -79.6417 
223 127.6 58.7494 14.0765 1.51387 -80.6992 
227 127.6 54.7085 13.9958 6.19907 -81.5504 
600 127.6 56.664 10.683 3.56154 -81.9193 
802 207.2 56.676 7.37146 5.34557 -79.4513 
818 207.2 56.8074 14.091 3.88742 -79.6937 
1203 207.2 58.902 10.7713 1.33318 -86.0954 
1206 207.2 54.8847 10.9968 5.97289 -75.3127 
1415 127.6 54.2692 14.4155 1.78203 -85.8188 
1416 127.6 59.022 13.6358 6.06414 -81.25 
30 207.2 3.37961 17.053 1.39983 -83.4107 
251 127.6 3.76071 19.9531 6.10001 -82.5988 
444 207.2 1.39907 20.2148 4.03895 -81.8733 
617 127.6 5.73329 16.7574 3.49294 -81.0237 
841 207.2 5.9267 19.8903 3.70125 -81.6954 
1035 127.6 1.22624 17.0308 3.82751 -81.7392 
1226 207.2 3.59815 16.7749 5.9163 -82.9323 
1437 127.6 3.55886 20.2256 1.64383 -82.3466 
25 207.2 12.3347 16.2601 0.759312 -83.909 
31 207.2 7.99952 16.3594 5.64417 -82.3329 
244 127.6 8.07838 19.8746 1.32838 -82.1048 
245 127.6 12.6724 19.2477 5.64758 -81.7334 
438 207.2 10.4102 19.5159 3.42408 -81.7158 
612 127.6 14.4445 16.0093 3.09547 -81.0732 
1030 127.6 10.1343 16.3875 3.21433 -81.2799 
1219 207.2 7.87873 16.71 1.05429 -83.7767 
1220 207.2 12.2728 16.1228 5.44578 -83.638 
1432 127.6 12.5777 19.435 1.0826 -81.7855 
1438 127.6 8.26991 19.5807 5.79212 -82.3808 
835 207.2 14.817 19.0818 3.29702 -82.7292 
1253 207.2 13.0707 22.3248 5.78755 -80.8914 
58 207.2 12.8589 22.5622 1.27586 -81.0486 
26 207.2 16.5079 15.5014 5.44768 -82.561 
647 127.6 15.2147 22.2111 3.42091 -83.0117 
59 207.2 17.5341 21.721 5.60369 -80.8258 
239 127.6 17.022 18.9076 0.951659 -82.6592 
433 207.2 19.2249 18.4353 3.206 -83.1441 
1056 127.6 19.6746 21.5574 3.17417 -83.6189 
1246 207.2 17.3535 22.0132 1.01729 -81.4713 
1427 127.6 21.4627 18.0941 1.01571 -75.8055 
1433 127.6 18.8474 15.3538 3.46171 -78.4521 
4166 207.2 21.8631 15.6836 4.26657 -78.1717 
1247 207.2 21.8394 21.0057 5.38616 -79.7733 
648 127.6 17.0037 18.6467 5.50285 -81.0111 
1057 127.6 21.1714 18.1279 5.69404 -76.5085 
1214 207.2 16.6691 15.843 0.835493 -82.2941 
53 207.2 21.8294 21.1692 0.749504 -79.9276 
3343 207.2 24.44 17.2349 1.97428 -80.5984 
3523 127.6 24.2636 20.6421 7.31235 -83.5808 
3725 207.2 27.3678 20.5876 1.09218 -75.9185 
3945 127.6 24.9057 16.8406 5.1578 -83.5309 
4128 207.2 27.9446 16.7582 5.26378 -68.1367 
4352 127.6 24.4857 20.6048 2.3555 -84.0388 
4557 207.2 26.087 20.0284 4.89602 -73.6409 
4737 127.6 27.6559 17.721 2.4584 -84.4659 
3904 127.6 28.5782 19.2389 6.7827 -85.1162 
4303 127.6 30.8518 14.9251 4.30568 -89.1222 
3677 207.2 34.2539 15.044 4.58387 -81.1323 
3300 207.2 30.9194 17.767 2.88617 -76.5337 
3682 207.2 33.4828 21.0995 2.42405 -85.0064 
4087 207.2 34.6363 17.1081 0.504301 -82.1377 
4268 127.6 36.2507 21.2494 3.71316 -74.5291 
4308 127.6 30.3932 20.537 1.81945 -79.2602 
4693 127.6 33.896 18.0439 3.56604 -80.3459 
4086 207.2 34.3286 20.3235 6.36697 -85.3716 
3258 207.2 37.0832 18.2942 3.83105 -85.2939 
4264 127.6 37.3389 15.3861 4.90184 -77.9261 
3862 127.6 37.1884 19.3889 6.90511 -71.4557 
3905 127.6 31.4107 16.4433 0.0984139 -84.253 
4472 207.2 38.9837 21.1704 5.15062 -85.8879 
260 127.6 40.5865 21.3377 1.882 -78.4262 
453 207.2 42.7712 20.2234 4.26176 -83.0796 
626 127.6 43.7935 18.5795 1.42298 -79.3607 
851 207.2 43.2873 21.5895 0.357778 -81.8419 
1043 127.6 43.9083 17.1868 5.11455 -79.4307 
3642 207.2 40.9826 16.4524 6.241 -83.4403 
3863 127.6 37.8036 17.5258 0.778603 -82.2011 
4049 207.2 40.8711 17.7681 1.54451 -81.2527 
4438 207.2 44.1473 15.5541 2.54525 -76.8349 
4657 127.6 40.1255 18.5137 4.30197 -70.7586 
1452 127.6 41.4686 21.1788 6.9618 -74.8133 
226 127.6 48.1721 15.8828 3.19164 -81.3137 
420 207.2 47.8276 15.1663 0.273843 -75.4491 
820 207.2 49.3865 16.1605 6.08237 -79.1492 
40 207.2 46.2854 18.4514 3.29228 -78.6197 
256 127.6 49.9858 21.1848 2.64352 -83.0102 
448 207.2 47.6004 21.4495 0.420958 -81.1629 
627 127.6 47.7494 18.6262 6.03959 -76.5793 
852 207.2 47.6734 21.5938 5.5404 -84.0861 
1230 207.2 50.0371 18.1621 2.33893 -74.9669 
1448 127.6 45.6011 21.4874 2.97716 -79.6149 
1040 127.6 52.1302 17.22 4.34094 -82.6943 
1449 127.6 50.2565 21.298 7.3568 -76.7778 
449 207.2 52.227 20.818 4.92841 -81.7049 
36 207.2 54.3954 17.5764 2.06289 -80.5715 
37 207.2 59.1013 17.0144 6.23626 -82.2788 
250 127.6 58.9989 20.516 1.96875 -82.6115 
257 127.6 54.7573 20.6195 6.79013 -80.6494 
623 127.6 56.7499 17.2927 4.12705 -82.3281 
847 207.2 56.8645 20.5072 4.41029 -82.2002 
1225 207.2 58.8654 17.2919 1.70364 -82.3395 
1231 207.2 54.5472 17.2719 6.52537 -84.7829 
1443 127.6 54.4326 20.7586 2.3341 -83.3511 
1444 127.6 59.2613 20.2578 6.45629 -81.5074 
64 207.2 3.79553 23.3652 1.84417 -80.8441 
288 127.6 4.31548 26.2975 6.50604 -84.0199 
477 207.2 1.92214 26.5777 4.44632 -80.2727 
653 127.6 6.17464 23.0674 3.92581 -83.4634 
698 127.6 6.70805 29.411 4.26191 -84.8838 
881 207.2 6.42814 26.2204 4.10196 -79.9514 
1067 127.6 1.65118 23.4167 4.2444 -83.1661 
1259 207.2 4.0177 23.109 6.31489 -80.952 
1300 207.2 4.61367 29.4666 6.67324 -79.6728 
1476 127.6 4.05464 26.5468 2.03264 -84.1859 
105 207.2 4.32274 29.7115 2.20211 -79.4995 
1103 127.6 2.23744 29.7641 4.61063 -84.3897 
697 127.6 1.95467 30.0243 0.121272 -84.4487 
111 207.2 0.166059 29.7992 7.05985 -80.4351 
1062 127.6 10.7011 22.6791 3.6485 -83.3662 
65 207.2 8.55069 22.726 6.00512 -80.3397 
100 207.2 13.3766 28.8835 1.5942 -79.3748 
106 207.2 9.08085 29.0843 6.30715 -79.3259 
281 127.6 8.57286 26.1741 1.72633 -84.3085 
282 127.6 13.3516 25.4668 5.86498 -83.8543 
472 207.2 10.9651 25.8133 3.78576 -79.7579 
1098 127.6 11.2139 28.9897 3.93773 -84.9546 
1252 207.2 8.32389 22.9989 1.54333 -80.8552 
1293 207.2 8.82809 29.3314 1.88955 -79.2334 
1294 207.2 13.5796 28.6148 5.99019 -79.3853 
1471 127.6 13.12 25.7339 1.44053 -83.9594 
1477 127.6 8.81306 25.9126 6.15321 -84.4932 
101 207.2 18.1176 28.0488 5.67834 -75.8161 
275 127.6 17.6479 25.165 1.15152 -83.2857 
467 207.2 20.0243 24.6275 3.15687 -79.426 
692 127.6 15.7526 28.4959 3.65212 -84.8044 
875 207.2 15.5128 25.3238 3.52184 -80.0995 
1093 127.6 20.2247 27.7264 3.36084 -82.724 
1287 207.2 17.9289 28.3306 1.30119 -80.1098 
1472 127.6 17.9015 24.9287 5.64365 -85.6353 
1465 127.6 22.2665 24.4052 0.855227 -83.0193 
641 127.6 22.3234 24.0522 5.37692 -85.7226 
4514 207.2 29.365 22.3151 6.93687 -76.8795 
4742 127.6 27.1962 22.9944 4.62218 -84.6902 
95 207.2 22.5358 27.7529 1.05882 -82.3374 
686 127.6 24.9269 26.9372 3.0431 -82.2099 
869 207.2 24.6618 23.7819 2.81217 -79.2439 
1288 207.2 22.682 27.1091 5.26045 -79.7303 
1466 127.6 25.1195 26.6473 6.96548 -76.5044 
1766 207.2 27.3669 26.1828 4.94458 -77.2284 
1984 127.6 28.3926 29.4538 4.82552 -81.0976 
89 207.2 29.4967 29.3929 1.91204 -77.0136 
3198 127.6 29.5828 26.3016 2.61562 -87.7494 
1281 207.2 26.9707 26.9971 0.651972 -79.051 
269 127.6 26.8961 23.6804 0.398782 -81.5871 
3305 207.2 29.6939 23.2595 2.78935 -75.5393 
2782 127.6 29.6944 26.4668 7.28163 -84.2588 
2572 207.2 24.6117 23.756 7.67394 -80.994 
3480 127.6 31.8125 22.4839 5.12452 -77.1209 
1985 127.6 33.6159 26.3704 4.82016 -80.1291 
2179 207.2 31.0212 27.8878 4.89546 -74.3781 
2397 127.6 36.8587 28.8924 2.81038 -80.6761 
2601 207.2 35.1594 28.1012 6.72417 -74.2069 
2799 127.6 32.5004 29.2323 1.99109 -82.8574 
3005 207.2 35.8161 24.1372 4.83975 -85.2379 
3686 207.2 32.662 26.1477 1.87653 -75.6502 
4698 127.6 34.6594 23.9184 1.70614 -77.2432 
1269 207.2 36.1583 26.2154 0.329137 -78.4107 
2987 207.2 32.4452 24.8061 7.30544 -80.7243 
3201 127.6 37.7198 26.5894 6.72738 -79.6631 
3262 207.2 37.7714 22.9291 1.52302 -83.3761 
299 127.6 41.8606 27.7672 3.06722 -76.4237 
487 207.2 39.0674 28.7753 0.404032 -79.7045 
488 207.2 43.7536 27.7637 5.56983 -81.0974 
664 127.6 43.6419 24.7209 0.592219 -80.7521 
669 127.6 38.9833 24.0974 4.40007 -77.267 
892 207.2 43.842 27.8998 0.79051 -82.7396 
898 207.2 39.0612 27.1595 4.03647 -80.6961 
1076 127.6 39.1106 25.7667 1.0323 -78.0485 
1077 127.6 43.4715 24.7197 5.27811 -76.1742 
1270 207.2 41.5008 24.5479 2.72522 -82.23 
80 207.2 40.8143 24.4773 6.92639 -82.1575 
75 207.2 45.7437 24.6389 3.09552 -83.7519 
293 127.6 50.5576 27.5329 3.05693 -82.3444 
481 207.2 48.2245 27.7852 0.87898 -81.7286 
665 127.6 48.0402 24.6323 5.37324 -81.6007 
893 207.2 48.3742 27.6952 5.5356 -81.7424 
1071 127.6 47.9292 24.6125 0.627865 -82.4517 
1264 207.2 50.2063 24.3507 2.90318 -82.0301 
1487 127.6 46.0781 27.8591 3.27659 -81.0585 
658 127.6 52.4102 24.3314 0.41729 -83.2307 
1072 127.6 52.5864 24.0893 4.99383 -81.2933 
886 207.2 52.6825 27.4998 0.614986 -81.1158 
1482 127.6 59.8028 26.6234 6.88023 -83.4023 
69 207.2 54.7112 23.9825 2.56755 -81.2994 
70 207.2 59.4824 23.426 6.68224 -81.5033 
287 127.6 59.5226 26.8818 2.36486 -83.7764 
294 127.6 55.3149 26.9771 7.26518 -82.6984 
476 207.2 57.1436 27.1678 0.281367 -80.5371 
482 207.2 52.906 27.2495 5.19072 -81.4662 
659 127.6 57.1152 23.7294 4.60186 -82.7547 
887 207.2 57.4038 26.9057 4.81608 -80.8593 
1258 207.2 59.2413 23.6902 2.1803 -80.949 
1265 207.2 54.9641 23.793 7.067 -81.9925 
1481 127.6 55.0393 27.1931 2.72393 -83.0639 
1066 127.6 56.8696 23.9885 0.102055 -83.4565 
145 207.2 4.95108 36.0764 2.56031 -78.9278 
330 127.6 4.94204 32.6559 6.84987 -84.8349 
515 207.2 2.55092 32.9423 4.78765 -79.6373 
742 127.6 2.57286 36.3785 0.469532 -84.8234 
926 207.2 2.2371 33.1994 0.293937 -79.5675 
927 207.2 6.99806 32.5909 4.44296 -79.0631 
1136 127.6 7.04478 36.03 0.186652 -85.8763 
1142 127.6 2.90925 36.1197 4.96224 -84.6875 
1340 207.2 0.502871 36.4197 2.87943 -80.175 
1341 207.2 5.28148 35.8345 7.04849 -79.4146 
1517 127.6 4.62848 32.8996 2.37683 -85.1534 
1523 127.6 0.537404 32.9841 7.22293 -83.818 
743 127.6 7.35292 35.7772 4.63151 -85.4343 
509 207.2 6.71787 32.8407 0.00432539 -78.9252 
140 207.2 13.9997 35.1963 2.0672 -79.1532 
146 207.2 9.7059 35.454 6.73562 -78.8131 
323 127.6 9.10886 32.5183 2.07049 -85.4533 
324 127.6 13.8197 31.816 6.16737 -84.9281 
510 207.2 11.4754 32.1563 4.13315 -79.1297 
1137 127.6 11.8126 35.3043 4.37686 -85.3352 
1334 207.2 9.44967 35.6846 2.27121 -78.3779 
1335 207.2 14.1975 35.0037 6.51072 -79.7612 
1512 127.6 13.6326 32.0658 1.79027 -85.5492 
1518 127.6 9.35143 32.2769 6.49319 -85.1676 
318 127.6 22.103 29.9652 5.79918 -75.8958 
141 207.2 18.6834 34.3258 6.31965 -78.0802 
317 127.6 18.1234 31.5778 1.53851 -85.702 
505 207.2 20.4647 31.0706 3.56056 -81.4562 
737 127.6 16.3781 34.8371 4.19744 -84.9196 
921 207.2 15.9761 31.6703 3.85299 -78.9086 
1132 127.6 20.8238 34.2815 4.01826 -83.1913 
1328 207.2 18.5258 34.7143 1.8418 -78.5736 
1513 127.6 18.2184 31.1968 5.97047 -85.749 
541 207.2 21.2039 37.3413 4.15972 -75.3759 
1550 127.6 19.2333 37.4232 6.82168 -85.4034 
915 207.2 25.1335 30.1146 4.14544 -84.919 
1507 127.6 22.4925 30.9001 1.25548 -77.8255 
2781 127.6 25.0704 30.6965 7.40149 -70.7636 
135 207.2 23.1138 33.9778 1.57191 -81.0236 
311 127.6 26.761 30.357 1.19929 -76.9152 
731 127.6 24.6367 33.2513 3.9981 -75.8634 
1329 207.2 23.0309 32.8043 6.47398 -82.9906 
2599 207.2 25.7104 35.6935 5.39928 -78.204 
3199 127.6 28.0461 33.954 5.88046 -73.282 
4135 207.2 27.4236 33.0527 2.93617 -82.1146 
4745 127.6 27.5633 36.1979 2.3488 -78.7553 
3308 207.2 29.7234 35.1294 0.358986 -74.8506 
2396 127.6 29.9764 32.3688 1.40361 -81.8116 
2180 207.2 29.1787 36.335 7.52672 -88.3517 
3200 127.6 32.5909 29.8371 6.53183 -83.9134 
1784 207.2 34.4454 30.4034 4.01307 -73.247 
2600 207.2 30.2111 31.9555 6.20917 -84.4626 
1785 207.2 35.6923 34.3658 5.75546 -74.6111 
2800 127.6 33.0044 33.1394 4.77797 -80.3423 
3006 207.2 32.329 36.1856 4.04893 -78.4665 
3485 127.6 36.1985 33.0948 2.8949 -84.1551 
3912 127.6 32.7796 35.5642 0.925785 -85.8527 
4094 207.2 35.8981 36.0945 1.5561 -79.9747 
4519 207.2 32.9718 32.5648 1.72012 -78.4157 
4701 127.6 35.3348 37.139 4.47154 -85.9092 
1988 127.6 36.2985 30.9945 7.07268 -88.4619 
1310 207.2 37.0868 32.0914 0.0938169 -78.9243 
715 127.6 40.5972 30.003 5.83878 -82.0602 
3007 207.2 38.1316 31.2124 4.5045 -74.2074 
339 127.6 42.6332 33.8952 4.09212 -79.6185 
524 207.2 39.8779 34.2574 2.92055 -74.7662 
709 127.6 44.2967 31.1129 1.1762 -81.8976 
938 207.2 44.668 34.3308 1.73644 -82.6436 
943 207.2 41.4196 32.795 6.69441 -72.7302 
1113 127.6 39.7453 31.4604 1.78516 -84.1028 
1114 127.6 44.3914 31.1018 6.00607 -84.0193 
1311 207.2 42.3519 30.8022 3.4504 -79.2666 
2398 127.6 38.7373 34.1196 6.06358 -87.1337 
3870 127.6 38.9481 36.8646 1.88861 -82.5572 
1348 207.2 42.086 37.1675 2.43289 -79.6738 
3869 127.6 41.1064 37.4936 5.32362 -79.4425 
1526 127.6 41.9943 34.6846 0.253711 -79.5172 
525 207.2 44.9118 34.4744 6.16101 -80.8282 
116 207.2 46.5208 30.9939 3.54106 -81.0312 
335 127.6 51.3646 33.8318 3.4372 -81.9461 
519 207.2 48.9816 34.1001 1.3419 -82.9182 
710 127.6 48.8785 30.8012 5.7182 -83.2217 
753 127.6 49.7556 37.0649 6.06165 -81.7916 
939 207.2 49.3447 33.9372 5.90999 -81.4066 
1108 127.6 48.6176 30.9329 1.10523 -81.8559 
1305 207.2 50.9484 30.6884 3.24453 -81.537 
1344 207.2 51.7369 37.0263 3.5877 -83.4534 
1527 127.6 46.993 34.136 3.84394 -82.4084 
1146 127.6 49.3279 37.2149 1.58186 -79.9263 
155 207.2 47.3081 37.3368 4.07735 -83.4203 
752 127.6 45.0169 37.5437 2.08284 -76.7342 
329 127.6 0.184113 33.2355 2.70525 -84.1367 
1299 207.2 59.8155 30.0558 2.53919 -80.1308 
704 127.6 57.7604 30.0951 4.98042 -83.5494 
110 207.2 55.374 30.376 2.89322 -80.8683 
150 207.2 56.0814 36.7809 3.23943 -82.1653 
514 207.2 57.7515 33.535 0.61617 -80.6937 
520 207.2 53.7297 33.595 5.51332 -81.495 
703 127.6 53.0227 30.6599 0.777724 -82.8401 
748 127.6 53.7165 36.9766 1.12708 -81.0075 
749 127.6 58.4983 36.4674 5.3287 -83.0288 
932 207.2 53.3492 33.8373 0.954612 -81.9089 
933 207.2 58.107 33.2896 5.15455 -80.7168 
1102 127.6 57.4529 30.3483 0.444097 -83.6616 
1109 127.6 53.3257 30.4159 5.34763 -82.7987 
1141 127.6 58.1005 36.7045 0.791481 -83.1545 
1147 127.6 54.1296 36.7681 5.6649 -80.7428 
1522 127.6 55.7473 33.5528 3.05796 -82.7577 
177 207.2 5.54849 42.4201 2.84755 -78.5397 
365 127.6 0.84703 39.5886 3.03809 -84.0428 
366 127.6 5.62318 38.9989 7.19321 -84.9618 
551 207.2 3.22062 39.2942 5.12389 -79.5516 
774 127.6 3.17908 42.7122 0.756049 -84.2519 
966 207.2 2.86432 39.5558 0.614126 -79.4779 
1174 127.6 3.50605 42.4623 5.25123 -84.6257 
1369 207.2 1.0948 42.7552 3.18229 -80.6941 
1554 127.6 5.29666 39.2543 2.71452 -85.6078 
545 207.2 7.34341 39.1942 0.330344 -77.8602 
1370 207.2 5.90031 42.143 7.34023 -79.9839 
967 207.2 7.69292 38.951 4.80801 -78.5707 
178 207.2 10.4146 41.8792 7.12518 -77.9495 
360 127.6 9.7885 38.8663 2.40879 -86.5812 
361 127.6 14.5705 38.1661 6.67663 -84.895 
546 207.2 12.1469 38.4175 4.59783 -78.1763 
769 127.6 12.3197 42.232 0.381442 -87.5424 
775 127.6 8.0159 42.1299 4.93631 -86.1071 
1168 127.6 7.65468 42.3754 0.44193 -87.1443 
1169 127.6 12.3894 41.563 4.67485 -88.4746 
1365 207.2 10.0152 42.0076 2.52681 -76.2044 
1549 127.6 14.2724 38.2754 2.27062 -85.4191 
1555 127.6 10.05 38.6479 6.90226 -84.9688 
572 207.2 12.5572 44.5776 4.61235 -70.6897 
173 207.2 14.5466 41.272 2.54183 -72.7167 
384 127.6 14.8157 44.4179 6.71264 -82.2921 
1366 207.2 14.8354 41.2638 6.92242 -77.3749 
355 127.6 18.8811 37.8101 2.17369 -83.096 
770 127.6 16.9284 41.136 4.4955 -81.2603 
961 207.2 16.8517 38.0308 4.4934 -79.9843 
3567 127.6 21.5781 44.3855 2.55466 -80.3441 
4173 207.2 21.8932 41.6421 3.99266 -73.3092 
4597 207.2 18.8458 42.2788 2.12198 -78.1602 
4786 127.6 20.9342 42.9143 6.74153 -87.5414 
4787 127.6 21.5903 40.9512 0.944417 -82.0539 
4596 207.2 17.7531 43.4159 6.46449 -76.8588 
1164 127.6 16.4375 41.5102 0.227303 -83.3453 
955 207.2 21.1287 38.0714 0.0970814 -75.5699 
4356 127.6 22.5163 39.38 5.90542 -78.6182 
4200 207.2 16.3488 44.801 0.954472 -75.5562 
3351 207.2 24.2335 43.1742 6.93667 -74.8068 
3352 207.2 24.8862 41.0787 0.995365 -76.2109 
3527 127.6 28.3779 40.0436 5.05151 -76.6534 
3731 207.2 28.9818 38.8881 2.34542 -77.7329 
3952 127.6 24.9006 42.2347 3.95965 -86.8405 
4137 207.2 27.9641 42.9251 4.29184 -81.2363 
4357 127.6 23.7989 37.9777 2.11976 -82.2632 
4561 207.2 25.3738 39.3189 4.83145 -76.1827 
4749 127.6 28.3973 41.7896 1.3421 -82.9275 
1986 127.6 26.5068 37.9553 7.25951 -73.4679 
3736 207.2 28.0857 44.6854 0.216715 -78.4787 
3911 127.6 32.0021 37.6089 6.63678 -74.2529 
3312 207.2 31.5804 42.4032 1.73655 -78.7812 
3487 127.6 34.4982 41.1982 6.12861 -83.0782 
3689 207.2 34.9668 40.0759 3.22853 -79.4269 
3873 127.6 37.1519 44.7157 5.56156 -84.473 
3914 127.6 31.0159 43.529 4.59193 -82.1703 
4097 207.2 34.0639 44.1289 5.06174 -81.3066 
4315 127.6 31.9779 39.3736 2.73983 -83.2776 
4520 207.2 31.399 40.4712 5.72942 -85.2575 
4705 127.6 34.6884 43.0501 2.11141 -84.7469 
3488 127.6 35.7069 39.0576 0.319798 -82.9921 
4093 207.2 34.8025 38.414 7.41695 -76.4484 
4521 207.2 32.6741 38.4841 59.8179 -78.8724 
4477 207.2 37.5179 41.7186 6.52707 -78.0522 
3265 207.2 38.2428 37.8128 4.79308 -75.4961 
3268 207.2 37.7373 43.7299 2.57071 -78.2038 
3446 127.6 40.6259 42.0319 7.04519 -85.2887 
3447 127.6 41.8593 40.2839 1.39747 -85.3427 
3649 207.2 41.0074 41.4725 4.02716 -74.3101 
4238 127.6 43.881 41.7593 4.94176 -83.3946 
4273 127.6 38.0539 40.7329 3.65361 -87.1052 
4478 207.2 38.7482 39.682 0.730322 -79.8977 
4663 127.6 40.8053 44.3763 3.11483 -84.7779 
4052 207.2 42.6075 39.4626 6.82251 -72.6417 
3837 127.6 44.6536 43.8503 0.747473 -81.9171 
4056 207.2 41.6475 43.312 0.181649 -78.9988 
1151 127.6 45.3865 37.5864 6.72952 -83.1251 
974 207.2 45.1139 40.7406 2.19771 -82.8964 
185 207.2 48.3273 43.4188 4.90076 -79.4062 
369 127.6 52.1261 40.1547 3.73723 -77.2957 
554 207.2 49.5674 40.3725 1.6921 -86.6539 
559 207.2 46.1666 40.6139 6.71495 -77.9631 
782 127.6 50.8368 43.3542 6.63595 -77.2451 
975 207.2 50.3597 40.219 6.18976 -82.4444 
1177 127.6 49.9237 43.3381 2.28903 -73.5171 
1563 127.6 47.7639 40.4524 4.20844 -80.99 
3623 207.2 47.6856 44.6411 0.865608 -82.3367 
1372 207.2 52.4042 43.6476 3.98327 -87.6633 
181 207.2 56.7349 43.1688 3.58805 -82.4879 
550 207.2 58.3806 39.8982 0.949106 -81.5541 
555 207.2 54.4241 40.1649 5.87569 -83.7302 
778 127.6 54.3768 43.2815 1.58692 -77.5779 
779 127.6 59.1 42.8918 5.68489 -83.0143 
970 207.2 54.0008 40.1842 1.31441 -84.8592 
971 207.2 58.8152 39.6755 5.50351 -81.2521 
1173 127.6 58.7136 43.0565 1.11591 -81.9762 
1178 127.6 54.7693 43.4662 6.02992 -79.0702 
1559 127.6 56.459 39.9575 3.43911 -81.2397 
197 207.2 6.05146 48.7381 2.79866 -80.2307 
387 127.6 1.33183 45.8707 3.32702 -82.9478 
575 207.2 3.67336 45.6314 5.34553 -79.1396 
584 207.2 4.18209 51.934 4.94084 -80.2649 
791 127.6 3.61391 48.9865 0.942672 -80.4201 
991 207.2 3.39185 45.8969 0.824856 -81.4861 
1191 127.6 4.05647 48.7952 5.32646 -84.5367 
1386 207.2 1.51047 48.969 3.41863 -83.0265 
1578 127.6 5.8257 45.5707 2.91501 -85.2355 
1591 127.6 6.44663 51.7984 2.90084 -78.9996 
396 127.6 1.45672 51.9637 3.51206 -72.8155 
1002 207.2 3.62476 52.1058 1.02039 -87.2918 
388 127.6 6.09952 45.2411 7.34797 -85.8391 
1387 207.2 6.33073 48.2348 7.24474 -72.9023 
992 207.2 8.18162 45.2788 4.95275 -76.6475 
383 127.6 10.3005 45.2021 2.5489 -89.207 
571 207.2 7.87114 45.5385 0.465784 -77.5903 
792 127.6 8.39155 48.5035 4.97718 -88.8966 
1188 127.6 8.27558 48.6264 0.593655 -83.19 
1384 207.2 10.458 48.2761 2.67425 -69.2356 
1579 127.6 10.6224 45.2805 6.90064 -83.5988 
3592 127.6 12.3425 49.6023 4.68645 -84.7341 
3798 207.2 13.8747 49.9751 2.02411 -73.4944 
4199 207.2 14.2555 47.3817 5.96512 -72.3651 
4617 207.2 8.65301 51.6157 5.0207 -75.761 
4816 127.6 14.1016 46.6072 2.79794 -87.2619 
988 207.2 12.4341 45.6598 0.198084 -74.5642 
198 207.2 10.6435 48.7478 7.18697 -76.1761 
4392 127.6 17.9773 44.8556 3.75887 -78.1231 
3383 207.2 17.3458 47.824 3.43612 -78.1038 
3771 207.2 20.7552 45.6853 5.23329 -79.2353 
3776 207.2 19.9081 51.4514 3.05633 -78.8819 
3986 127.6 16.7753 48.9604 6.27728 -84.6419 
3987 127.6 17.668 47.3945 0.377086 -79.1648 
4176 207.2 19.7763 49.4525 7.02302 -79.6105 
4177 207.2 20.7162 47.1694 1.13047 -80.6047 
4395 127.6 16.7611 50.877 2.56162 -87.3202 
4600 207.2 16.2238 51.8753 5.49253 -75.5279 
4791 127.6 20.3875 48.5232 4.04691 -84.6287 
3572 127.6 20.5321 50.5208 0.116633 -84.8502 
3571 127.6 19.3121 52.4759 5.96802 -85.8154 
4565 207.2 24.5242 45.1488 2.78272 -78.8672 
3317 207.2 29.6314 50.4144 5.38262 -79.0147 
3356 207.2 23.4506 49.0803 4.54556 -78.9212 
3532 127.6 27.5561 45.8202 3.15532 -86.1016 
3538 127.6 26.6827 51.654 0.950394 -86.022 
3735 207.2 26.9861 46.7711 6.12842 -78.584 
3958 127.6 23.9899 48.0125 1.59132 -84.563 
4143 207.2 27.1149 48.7132 2.01805 -78.237 
4361 127.6 23.902 46.1297 5.75568 -85.3034 
4366 127.6 23.0105 52.0748 3.50467 -85.3374 
4571 207.2 23.5738 51.0002 0.585473 -79.3201 
4754 127.6 26.5302 49.7461 4.95529 -85.1484 
4532 207.2 29.7938 52.3043 1.33787 -78.3933 
4319 127.6 30.0368 47.5039 6.461 -84.063 
3920 127.6 30.2203 49.3746 2.41204 -85.4328 
3274 207.2 35.8488 51.694 6.24793 -79.271 
3275 207.2 37.0455 49.5723 0.340633 -79.4008 
3492 127.6 33.7322 47.0957 3.92409 -84.372 
3693 207.2 33.1444 48.1647 6.90344 -80.5541 